************************************************************
This is node25.cluster of cluster Pinconning.
Date: Thu Feb 21 20:55:40 PST 2019
************************************************************
 Set GAUSS_MDEF to "32GB".
 Set GAUSS_PDEF to "16".
 Entering Gaussian System, Link 0=gdv
 Initial command:
 /opt/gaussian/gdv-20170407-i10+/gdv/local/l1.exe "/tmp/652481.1.16core.q/Gau-1147.inp" -scrdir="/tmp/652481.1.16core.q/"
 Default is to use a total of  16 processors:
                               16 via shared-memory
                                1 via Linda
 Entering Link 1 = /opt/gaussian/gdv-20170407-i10+/gdv/local/l1.exe PID=      1148.
  
 Copyright (c) 1988-2017, Gaussian, Inc.  All Rights Reserved.
  
 This is the private, development version of
 the Gaussian(R) DV system of programs. It is based on
 the Gaussian(R) 16 system (copyright 2016, Gaussian, Inc.),
 the Gaussian(R) 09 system (copyright 2009, Gaussian, Inc.),
 the Gaussian(R) 03 system (copyright 2003, Gaussian, Inc.),
 the Gaussian(R) 98 system (copyright 1998, Gaussian, Inc.),
 the Gaussian(R) 94 system (copyright 1995, Gaussian, Inc.),
 the Gaussian 92(TM) system (copyright 1992, Gaussian, Inc.),
 the Gaussian 90(TM) system (copyright 1990, Gaussian, Inc.),
 the Gaussian 88(TM) system (copyright 1988, Gaussian, Inc.),
 the Gaussian 86(TM) system (copyright 1986, Carnegie Mellon
 University), and the Gaussian 82(TM) system (copyright 1983,
 Carnegie Mellon University). Gaussian is a federally registered
 trademark of Gaussian, Inc.
  
 This software contains proprietary and confidential information,
 including trade secrets, belonging to Gaussian, Inc.
  
 This software is provided under written license and may be
 used, copied, transmitted, or stored only in accord with that
 written license.
  
 The following legend is applicable only to US Government
 contracts under FAR:
  
                    RESTRICTED RIGHTS LEGEND
  
 Use, reproduction and disclosure by the US Government is
 subject to restrictions as set forth in subparagraphs (a)
 and (c) of the Commercial Computer Software - Restricted
 Rights clause in FAR 52.227-19.
  
 Gaussian, Inc.
 340 Quinnipiac St., Bldg. 40, Wallingford CT 06492
  
  
 ---------------------------------------------------------------
 Warning -- This program may not be used in any manner that
 competes with the business of Gaussian, Inc. or will provide
 assistance to any competitor of Gaussian, Inc.  The licensee
 of this program is prohibited from giving any competitor of
 Gaussian, Inc. access to this program.  By using this program,
 the user acknowledges that Gaussian, Inc. is engaged in the
 business of creating and licensing software in the field of
 computational chemistry and represents and warrants to the
 licensee that it is not a competitor of Gaussian, Inc. and that
 it will not use this program in any manner prohibited above.
 ---------------------------------------------------------------
  

 Cite this work as:
 Gaussian Development Version, Revision I.10+,
 M. J. Frisch, G. W. Trucks, H. B. Schlegel, G. E. Scuseria, 
 M. A. Robb, J. R. Cheeseman, G. Scalmani, V. Barone, 
 G. A. Petersson, H. Nakatsuji, X. Li, M. Caricato, A. V. Marenich, 
 J. Bloino, B. G. Janesko, R. Gomperts, B. Mennucci, H. P. Hratchian, 
 J. V. Ortiz, A. F. Izmaylov, J. L. Sonnenberg, D. Williams-Young, 
 F. Ding, F. Lipparini, F. Egidi, J. Goings, B. Peng, A. Petrone, 
 T. Henderson, D. Ranasinghe, V. G. Zakrzewski, J. Gao, N. Rega, 
 G. Zheng, W. Liang, M. Hada, M. Ehara, K. Toyota, R. Fukuda, 
 J. Hasegawa, M. Ishida, T. Nakajima, Y. Honda, O. Kitao, H. Nakai, 
 T. Vreven, K. Throssell, J. A. Montgomery, Jr., J. E. Peralta, 
 F. Ogliaro, M. J. Bearpark, J. J. Heyd, E. N. Brothers, K. N. Kudin, 
 V. N. Staroverov, T. A. Keith, R. Kobayashi, J. Normand, 
 K. Raghavachari, A. P. Rendell, J. C. Burant, S. S. Iyengar, 
 J. Tomasi, M. Cossi, J. M. Millam, M. Klene, C. Adamo, R. Cammi, 
 J. W. Ochterski, R. L. Martin, K. Morokuma, O. Farkas, 
 J. B. Foresman, and D. J. Fox, Gaussian, Inc., Wallingford CT, 2016.
 
 *******************************************
 Gaussian DV:  ES64L-GDVRevI.10+ 27-Mar-2017
                 21-Feb-2019 
 *******************************************
 %chk=methylene_gs
 ----------------------------------------------------------------------
 # CAM-B3LYP/6-31+G* Geom=Check guess=read freq=(readfc,FC,readFCHT) no
 symm
 ----------------------------------------------------------------------
 1/29=2,38=1,172=1/1;
 2/12=2,15=1,40=1/2;
 7/8=1,25=11,30=1,71=10,121=1/16,18;
 99/5=5/99;
 --------------------------
 pCT- Geometry Optimization
 --------------------------
 Structure from the checkpoint file:  "methylene_gs.chk"
 Charge = -1 Multiplicity = 1
 Redundant internal coordinates found in file.  (old form).
 S,0,0.0189878001,-1.4913481067,0.0521160873
 N,0,-5.0066425457,-0.7198955037,0.0346664787
 N,0,5.0300308936,-0.6319990109,-0.0053105304
 N,0,-0.0088936767,1.6254861398,-0.09279278
 C,0,-1.3547388044,-0.4280771371,0.0077284155
 C,0,1.3734793426,-0.4041856467,-0.0031383751
 C,0,-1.1768775024,0.9928711411,-0.0591296629
 C,0,1.1702256507,1.0134214423,-0.0684686629
 C,0,-3.7749282447,-0.1784575391,0.0048914774
 C,0,3.7888233657,-0.1122133947,-0.0252379653
 C,0,-2.6143750396,-0.9907145198,0.0385226072
 C,0,2.6429814379,-0.9446741765,0.0175751619
 C,0,-2.3594071767,1.7937229925,-0.0922118287
 C,0,2.3382361012,1.8348645956,-0.1109177203
 C,0,-3.6016631981,1.2465527316,-0.0622246693
 C,0,3.590084287,1.3095372631,-0.0908785546
 C,0,-5.1756524616,-2.1674988554,0.102832546
 C,0,-6.1977996784,0.1263793203,-0.0000847977
 C,0,6.205870282,0.2349968272,-0.0495343395
 C,0,5.2248906083,-2.0764226861,0.0612706167
 H,0,-2.7068655945,-2.0679495573,0.0890017386
 H,0,2.7547297857,-2.0201191866,0.067246062
 H,0,-2.2212585506,2.8684545245,-0.142827832
 H,0,2.1808845559,2.9070075583,-0.160359146
 H,0,-4.4659458862,1.895917628,-0.0895068932
 H,0,4.4426097077,1.9739433397,-0.1250169356
 H,0,-4.7238708829,-2.5753228498,1.0133287484
 H,0,-4.7303279963,-2.6584383153,-0.7689954552
 H,0,-6.2380546244,-2.4019626355,0.1175919729
 H,0,-6.2380795619,0.7170003191,-0.9206808463
 H,0,-6.2308436172,0.8003785796,0.8616413953
 H,0,-7.0812545555,-0.5079218124,0.033166934
 H,0,6.2338700298,0.909695952,0.8118194672
 H,0,6.2285721452,0.8259893594,-0.9704953504
 H,0,7.1005352946,-0.3837237037,-0.0231333227
 H,0,4.7875827303,-2.492098422,0.9752760355
 H,0,6.2913152713,-2.2922786708,0.0675197657
 H,0,4.7812797503,-2.5750663266,-0.8070516406
 Recover connectivity data from disk.
                           ----------------------------
                           !    Current Parameters    !
                           ! (Angstroms and Degrees)  !
 --------------------------                            --------------------------
 ! Name  Definition              Value          Derivative Info.                !
 --------------------------------------------------------------------------------
 ! R1    R(1,5)                  1.7377         estimate D2E/DX2                !
 ! R2    R(1,6)                  1.7377         estimate D2E/DX2                !
 ! R3    R(2,9)                  1.3458         estimate D2E/DX2                !
 ! R4    R(2,17)                 1.459          estimate D2E/DX2                !
 ! R5    R(2,18)                 1.4616         estimate D2E/DX2                !
 ! R6    R(3,10)                 1.3458         estimate D2E/DX2                !
 ! R7    R(3,19)                 1.4616         estimate D2E/DX2                !
 ! R8    R(3,20)                 1.459          estimate D2E/DX2                !
 ! R9    R(4,7)                  1.3287         estimate D2E/DX2                !
 ! R10   R(4,8)                  1.3287         estimate D2E/DX2                !
 ! R11   R(5,7)                  1.4336         estimate D2E/DX2                !
 ! R12   R(5,11)                 1.3799         estimate D2E/DX2                !
 ! R13   R(6,8)                  1.4336         estimate D2E/DX2                !
 ! R14   R(6,12)                 1.3799         estimate D2E/DX2                !
 ! R15   R(7,13)                 1.4286         estimate D2E/DX2                !
 ! R16   R(8,14)                 1.4286         estimate D2E/DX2                !
 ! R17   R(9,11)                 1.417          estimate D2E/DX2                !
 ! R18   R(9,15)                 1.4371         estimate D2E/DX2                !
 ! R19   R(10,12)                1.417          estimate D2E/DX2                !
 ! R20   R(10,16)                1.4371         estimate D2E/DX2                !
 ! R21   R(11,21)                1.0824         estimate D2E/DX2                !
 ! R22   R(12,22)                1.0824         estimate D2E/DX2                !
 ! R23   R(13,15)                1.3578         estimate D2E/DX2                !
 ! R24   R(13,23)                1.0848         estimate D2E/DX2                !
 ! R25   R(14,16)                1.3578         estimate D2E/DX2                !
 ! R26   R(14,24)                1.0848         estimate D2E/DX2                !
 ! R27   R(15,25)                1.0814         estimate D2E/DX2                !
 ! R28   R(16,26)                1.0814         estimate D2E/DX2                !
 ! R29   R(17,27)                1.0952         estimate D2E/DX2                !
 ! R30   R(17,28)                1.0952         estimate D2E/DX2                !
 ! R31   R(17,29)                1.0881         estimate D2E/DX2                !
 ! R32   R(18,30)                1.0945         estimate D2E/DX2                !
 ! R33   R(18,31)                1.0945         estimate D2E/DX2                !
 ! R34   R(18,32)                1.0881         estimate D2E/DX2                !
 ! R35   R(19,33)                1.0945         estimate D2E/DX2                !
 ! R36   R(19,34)                1.0945         estimate D2E/DX2                !
 ! R37   R(19,35)                1.0881         estimate D2E/DX2                !
 ! R38   R(20,36)                1.0952         estimate D2E/DX2                !
 ! R39   R(20,37)                1.0881         estimate D2E/DX2                !
 ! R40   R(20,38)                1.0952         estimate D2E/DX2                !
 ! A1    A(5,1,6)              103.4489         estimate D2E/DX2                !
 ! A2    A(9,2,17)             120.4123         estimate D2E/DX2                !
 ! A3    A(9,2,18)             120.825          estimate D2E/DX2                !
 ! A4    A(17,2,18)            118.7626         estimate D2E/DX2                !
 ! A5    A(10,3,19)            120.8251         estimate D2E/DX2                !
 ! A6    A(10,3,20)            120.4119         estimate D2E/DX2                !
 ! A7    A(19,3,20)            118.763          estimate D2E/DX2                !
 ! A8    A(7,4,8)              124.0744         estimate D2E/DX2                !
 ! A9    A(1,5,7)              120.6368         estimate D2E/DX2                !
 ! A10   A(1,5,11)             118.1365         estimate D2E/DX2                !
 ! A11   A(7,5,11)             121.2267         estimate D2E/DX2                !
 ! A12   A(1,6,8)              120.6366         estimate D2E/DX2                !
 ! A13   A(1,6,12)             118.1364         estimate D2E/DX2                !
 ! A14   A(8,6,12)             121.227          estimate D2E/DX2                !
 ! A15   A(4,7,5)              125.6015         estimate D2E/DX2                !
 ! A16   A(4,7,13)             117.396          estimate D2E/DX2                !
 ! A17   A(5,7,13)             117.0025         estimate D2E/DX2                !
 ! A18   A(4,8,6)              125.6019         estimate D2E/DX2                !
 ! A19   A(4,8,14)             117.3954         estimate D2E/DX2                !
 ! A20   A(6,8,14)             117.0027         estimate D2E/DX2                !
 ! A21   A(2,9,11)             121.2294         estimate D2E/DX2                !
 ! A22   A(2,9,15)             120.6853         estimate D2E/DX2                !
 ! A23   A(11,9,15)            118.0853         estimate D2E/DX2                !
 ! A24   A(3,10,12)            121.229          estimate D2E/DX2                !
 ! A25   A(3,10,16)            120.686          estimate D2E/DX2                !
 ! A26   A(12,10,16)           118.0849         estimate D2E/DX2                !
 ! A27   A(5,11,9)             120.89           estimate D2E/DX2                !
 ! A28   A(5,11,21)            119.0018         estimate D2E/DX2                !
 ! A29   A(9,11,21)            120.1082         estimate D2E/DX2                !
 ! A30   A(6,12,10)            120.8897         estimate D2E/DX2                !
 ! A31   A(6,12,22)            119.0022         estimate D2E/DX2                !
 ! A32   A(10,12,22)           120.1081         estimate D2E/DX2                !
 ! A33   A(7,13,15)            122.0679         estimate D2E/DX2                !
 ! A34   A(7,13,23)            116.8126         estimate D2E/DX2                !
 ! A35   A(15,13,23)           121.1195         estimate D2E/DX2                !
 ! A36   A(8,14,16)            122.0675         estimate D2E/DX2                !
 ! A37   A(8,14,24)            116.8129         estimate D2E/DX2                !
 ! A38   A(16,14,24)           121.1196         estimate D2E/DX2                !
 ! A39   A(9,15,13)            120.7276         estimate D2E/DX2                !
 ! A40   A(9,15,25)            120.0177         estimate D2E/DX2                !
 ! A41   A(13,15,25)           119.2547         estimate D2E/DX2                !
 ! A42   A(10,16,14)           120.7281         estimate D2E/DX2                !
 ! A43   A(10,16,26)           120.0176         estimate D2E/DX2                !
 ! A44   A(14,16,26)           119.2543         estimate D2E/DX2                !
 ! A45   A(2,17,27)            111.1321         estimate D2E/DX2                !
 ! A46   A(2,17,28)            111.129          estimate D2E/DX2                !
 ! A47   A(2,17,29)            109.1194         estimate D2E/DX2                !
 ! A48   A(27,17,28)           109.0958         estimate D2E/DX2                !
 ! A49   A(27,17,29)           108.1355         estimate D2E/DX2                !
 ! A50   A(28,17,29)           108.1335         estimate D2E/DX2                !
 ! A51   A(2,18,30)            111.2499         estimate D2E/DX2                !
 ! A52   A(2,18,31)            111.2502         estimate D2E/DX2                !
 ! A53   A(2,18,32)            108.8713         estimate D2E/DX2                !
 ! A54   A(30,18,31)           109.1964         estimate D2E/DX2                !
 ! A55   A(30,18,32)           108.0831         estimate D2E/DX2                !
 ! A56   A(31,18,32)           108.0839         estimate D2E/DX2                !
 ! A57   A(3,19,33)            111.2499         estimate D2E/DX2                !
 ! A58   A(3,19,34)            111.2504         estimate D2E/DX2                !
 ! A59   A(3,19,35)            108.8714         estimate D2E/DX2                !
 ! A60   A(33,19,34)           109.1965         estimate D2E/DX2                !
 ! A61   A(33,19,35)           108.0833         estimate D2E/DX2                !
 ! A62   A(34,19,35)           108.0833         estimate D2E/DX2                !
 ! A63   A(3,20,36)            111.1312         estimate D2E/DX2                !
 ! A64   A(3,20,37)            109.1207         estimate D2E/DX2                !
 ! A65   A(3,20,38)            111.1292         estimate D2E/DX2                !
 ! A66   A(36,20,37)           108.1356         estimate D2E/DX2                !
 ! A67   A(36,20,38)           109.0954         estimate D2E/DX2                !
 ! A68   A(37,20,38)           108.1332         estimate D2E/DX2                !
 ! D1    D(6,1,5,7)              0.0156         estimate D2E/DX2                !
 ! D2    D(6,1,5,11)          -179.9906         estimate D2E/DX2                !
 ! D3    D(5,1,6,8)             -0.0151         estimate D2E/DX2                !
 ! D4    D(5,1,6,12)           179.9909         estimate D2E/DX2                !
 ! D5    D(17,2,9,11)            0.0009         estimate D2E/DX2                !
 ! D6    D(17,2,9,15)         -179.9995         estimate D2E/DX2                !
 ! D7    D(18,2,9,11)          179.9838         estimate D2E/DX2                !
 ! D8    D(18,2,9,15)           -0.0166         estimate D2E/DX2                !
 ! D9    D(9,2,17,27)           60.8487         estimate D2E/DX2                !
 ! D10   D(9,2,17,28)          -60.8451         estimate D2E/DX2                !
 ! D11   D(9,2,17,29)         -179.996          estimate D2E/DX2                !
 ! D12   D(18,2,17,27)        -119.1345         estimate D2E/DX2                !
 ! D13   D(18,2,17,28)         119.1716         estimate D2E/DX2                !
 ! D14   D(18,2,17,29)           0.0207         estimate D2E/DX2                !
 ! D15   D(9,2,18,30)           61.0222         estimate D2E/DX2                !
 ! D16   D(9,2,18,31)          -60.967          estimate D2E/DX2                !
 ! D17   D(9,2,18,32)         -179.973          estimate D2E/DX2                !
 ! D18   D(17,2,18,30)        -118.9946         estimate D2E/DX2                !
 ! D19   D(17,2,18,31)         119.0162         estimate D2E/DX2                !
 ! D20   D(17,2,18,32)           0.0102         estimate D2E/DX2                !
 ! D21   D(19,3,10,12)        -179.9861         estimate D2E/DX2                !
 ! D22   D(19,3,10,16)           0.0147         estimate D2E/DX2                !
 ! D23   D(20,3,10,12)           0.0051         estimate D2E/DX2                !
 ! D24   D(20,3,10,16)        -179.9941         estimate D2E/DX2                !
 ! D25   D(10,3,19,33)          60.9555         estimate D2E/DX2                !
 ! D26   D(10,3,19,34)         -61.034          estimate D2E/DX2                !
 ! D27   D(10,3,19,35)         179.9606         estimate D2E/DX2                !
 ! D28   D(20,3,19,33)        -119.0359         estimate D2E/DX2                !
 ! D29   D(20,3,19,34)         118.9747         estimate D2E/DX2                !
 ! D30   D(20,3,19,35)          -0.0308         estimate D2E/DX2                !
 ! D31   D(10,3,20,36)         -60.8515         estimate D2E/DX2                !
 ! D32   D(10,3,20,37)         179.9928         estimate D2E/DX2                !
 ! D33   D(10,3,20,38)          60.8414         estimate D2E/DX2                !
 ! D34   D(19,3,20,36)         119.1399         estimate D2E/DX2                !
 ! D35   D(19,3,20,37)          -0.0158         estimate D2E/DX2                !
 ! D36   D(19,3,20,38)        -119.1672         estimate D2E/DX2                !
 ! D37   D(8,4,7,5)             -0.0011         estimate D2E/DX2                !
 ! D38   D(8,4,7,13)           179.9986         estimate D2E/DX2                !
 ! D39   D(7,4,8,6)              0.0016         estimate D2E/DX2                !
 ! D40   D(7,4,8,14)          -179.9992         estimate D2E/DX2                !
 ! D41   D(1,5,7,4)             -0.0095         estimate D2E/DX2                !
 ! D42   D(1,5,7,13)           179.9909         estimate D2E/DX2                !
 ! D43   D(11,5,7,4)           179.9969         estimate D2E/DX2                !
 ! D44   D(11,5,7,13)           -0.0028         estimate D2E/DX2                !
 ! D45   D(1,5,11,9)          -179.9938         estimate D2E/DX2                !
 ! D46   D(1,5,11,21)            0.003          estimate D2E/DX2                !
 ! D47   D(7,5,11,9)             0.0            estimate D2E/DX2                !
 ! D48   D(7,5,11,21)          179.9968         estimate D2E/DX2                !
 ! D49   D(1,6,8,4)              0.0085         estimate D2E/DX2                !
 ! D50   D(1,6,8,14)          -179.9907         estimate D2E/DX2                !
 ! D51   D(12,6,8,4)          -179.9978         estimate D2E/DX2                !
 ! D52   D(12,6,8,14)            0.0031         estimate D2E/DX2                !
 ! D53   D(1,6,12,10)          179.9941         estimate D2E/DX2                !
 ! D54   D(1,6,12,22)           -0.0036         estimate D2E/DX2                !
 ! D55   D(8,6,12,10)            0.0001         estimate D2E/DX2                !
 ! D56   D(8,6,12,22)         -179.9976         estimate D2E/DX2                !
 ! D57   D(4,7,13,15)         -179.998          estimate D2E/DX2                !
 ! D58   D(4,7,13,23)            0.0024         estimate D2E/DX2                !
 ! D59   D(5,7,13,15)            0.0017         estimate D2E/DX2                !
 ! D60   D(5,7,13,23)         -179.9979         estimate D2E/DX2                !
 ! D61   D(4,8,14,16)          179.9992         estimate D2E/DX2                !
 ! D62   D(4,8,14,24)           -0.0019         estimate D2E/DX2                !
 ! D63   D(6,8,14,16)           -0.0016         estimate D2E/DX2                !
 ! D64   D(6,8,14,24)          179.9974         estimate D2E/DX2                !
 ! D65   D(2,9,11,5)          -179.9965         estimate D2E/DX2                !
 ! D66   D(2,9,11,21)            0.0067         estimate D2E/DX2                !
 ! D67   D(15,9,11,5)            0.0039         estimate D2E/DX2                !
 ! D68   D(15,9,11,21)        -179.9929         estimate D2E/DX2                !
 ! D69   D(2,9,15,13)          179.9954         estimate D2E/DX2                !
 ! D70   D(2,9,15,25)           -0.0095         estimate D2E/DX2                !
 ! D71   D(11,9,15,13)          -0.005          estimate D2E/DX2                !
 ! D72   D(11,9,15,25)         179.9901         estimate D2E/DX2                !
 ! D73   D(3,10,12,6)          179.9961         estimate D2E/DX2                !
 ! D74   D(3,10,12,22)          -0.0062         estimate D2E/DX2                !
 ! D75   D(16,10,12,6)          -0.0047         estimate D2E/DX2                !
 ! D76   D(16,10,12,22)        179.993          estimate D2E/DX2                !
 ! D77   D(3,10,16,14)        -179.9946         estimate D2E/DX2                !
 ! D78   D(3,10,16,26)           0.0104         estimate D2E/DX2                !
 ! D79   D(12,10,16,14)          0.0062         estimate D2E/DX2                !
 ! D80   D(12,10,16,26)       -179.9888         estimate D2E/DX2                !
 ! D81   D(7,13,15,9)            0.0022         estimate D2E/DX2                !
 ! D82   D(7,13,15,25)        -179.9929         estimate D2E/DX2                !
 ! D83   D(23,13,15,9)        -179.9982         estimate D2E/DX2                !
 ! D84   D(23,13,15,25)          0.0067         estimate D2E/DX2                !
 ! D85   D(8,14,16,10)          -0.003          estimate D2E/DX2                !
 ! D86   D(8,14,16,26)         179.992          estimate D2E/DX2                !
 ! D87   D(24,14,16,10)        179.9981         estimate D2E/DX2                !
 ! D88   D(24,14,16,26)         -0.0069         estimate D2E/DX2                !
 --------------------------------------------------------------------------------
                          Input orientation:                          
 ---------------------------------------------------------------------
 Center     Atomic      Atomic             Coordinates (Angstroms)
 Number     Number       Type             X           Y           Z
 ---------------------------------------------------------------------
      1         16           0        0.018988   -1.491348    0.052116
      2          7           0       -5.006643   -0.719896    0.034666
      3          7           0        5.030031   -0.631999   -0.005311
      4          7           0       -0.008894    1.625486   -0.092793
      5          6           0       -1.354739   -0.428077    0.007728
      6          6           0        1.373479   -0.404186   -0.003138
      7          6           0       -1.176878    0.992871   -0.059130
      8          6           0        1.170226    1.013421   -0.068469
      9          6           0       -3.774928   -0.178458    0.004891
     10          6           0        3.788823   -0.112213   -0.025238
     11          6           0       -2.614375   -0.990715    0.038523
     12          6           0        2.642981   -0.944674    0.017575
     13          6           0       -2.359407    1.793723   -0.092212
     14          6           0        2.338236    1.834865   -0.110918
     15          6           0       -3.601663    1.246553   -0.062225
     16          6           0        3.590084    1.309537   -0.090879
     17          6           0       -5.175652   -2.167499    0.102833
     18          6           0       -6.197800    0.126379   -0.000085
     19          6           0        6.205870    0.234997   -0.049534
     20          6           0        5.224891   -2.076423    0.061271
     21          1           0       -2.706866   -2.067950    0.089002
     22          1           0        2.754730   -2.020119    0.067246
     23          1           0       -2.221259    2.868455   -0.142828
     24          1           0        2.180885    2.907008   -0.160359
     25          1           0       -4.465946    1.895918   -0.089507
     26          1           0        4.442610    1.973943   -0.125017
     27          1           0       -4.723871   -2.575323    1.013329
     28          1           0       -4.730328   -2.658438   -0.768995
     29          1           0       -6.238055   -2.401963    0.117592
     30          1           0       -6.238080    0.717000   -0.920681
     31          1           0       -6.230844    0.800379    0.861641
     32          1           0       -7.081255   -0.507922    0.033167
     33          1           0        6.233870    0.909696    0.811819
     34          1           0        6.228572    0.825989   -0.970495
     35          1           0        7.100535   -0.383724   -0.023133
     36          1           0        4.787583   -2.492098    0.975276
     37          1           0        6.291315   -2.292279    0.067520
     38          1           0        4.781280   -2.575066   -0.807052
 ---------------------------------------------------------------------
                    Distance matrix (angstroms):
                    1          2          3          4          5
     1  S    0.000000
     2  N    5.084526   0.000000
     3  N    5.084519  10.037138   0.000000
     4  N    3.120326   5.522187   5.522196   0.000000
     5  C    1.737711   3.663644   6.388039   2.457341   0.000000
     6  C    1.737706   6.388040   3.663642   2.457348   2.728344
     7  C    2.759314   4.196364   6.416293   1.328729   1.433596
     8  C    2.759304   6.416286   4.196367   1.328735   2.908465
     9  C    4.014936   1.345794   8.816638   4.176933   2.433030
    10  C    4.014929   8.816637   1.345797   4.176939   5.153357
    11  C    2.680563   2.407551   7.652943   3.694629   1.379925
    12  C    2.680557   7.652945   2.407550   3.694638   4.030972
    13  C    4.058237   3.652702   7.777884   2.356527   2.440439
    14  C    4.058224   7.777868   3.652715   2.356520   4.332787
    15  C    4.540737   2.418734   8.833931   3.612827   2.803203
    16  C    4.540720   8.833916   2.418746   3.612820   5.242166
    17  C    5.238706   1.459029  10.321116   6.412519   4.199287
    18  C    6.424034   1.461590  11.253415   6.368553   4.874702
    19  C    6.424026  11.253415   1.461587   6.368565   7.589846
    20  C    5.238685  10.321102   1.459028   6.412516   6.783173
    21  H    2.786415   2.666304   7.869588   4.577507   2.126978
    22  H    2.786416   7.869596   2.666297   4.577517   4.407479
    23  H    4.905567   4.546001   8.053154   2.538116   3.411839
    24  H    4.905556   8.053136   4.546014   2.538108   4.863299
    25  H    5.622122   2.673995   9.827056   4.465250   3.884587
    26  H    5.622104   9.827036   2.674010   4.465237   6.276669
    27  H    4.959197   2.116684   9.997636   6.411030   4.119824
    28  H    4.959065   2.116641   9.997714   6.411022   4.119759
    29  H    6.323297   2.086289  11.406911   7.420718   5.268308
    30  H    6.706268   2.119857  11.385430   6.349291   5.100996
    31  H    6.705799   2.119856  11.384665   6.348575   5.100458
    32  H    7.168049   2.085414  12.111982   7.388206   5.727129
    33  H    6.705738  11.384580   2.119848   6.348447   7.747463
    34  H    6.706320  11.385524   2.119862   6.349452   7.748304
    35  H    7.168041  12.111982   2.085413   7.388217   8.455447
    36  H    4.959155   9.997615   2.116672   6.411042   6.551675
    37  H    6.323276  11.406898   2.086306   7.420729   7.870258
    38  H    4.959036   9.997678   2.116643   6.410972   6.551653
                    6          7          8          9         10
     6  C    0.000000
     7  C    2.908474   0.000000
     8  C    1.433593   2.347212   0.000000
     9  C    5.153360   2.850610   5.087288   0.000000
    10  C    2.433028   5.087293   2.850610   7.564102   0.000000
    11  C    4.030972   2.451642   4.283831   1.416960   6.463496
    12  C    1.379925   4.283840   2.451643   6.463499   1.416961
    13  C    4.332803   1.428578   3.614933   2.429532   6.437221
    14  C    2.440434   3.614922   1.428572   6.437209   2.429538
    15  C    5.242182   2.438022   4.777584   1.437073   7.514446
    16  C    2.803191   4.777574   2.438012   7.514433   1.437074
    17  C    6.783187   5.099448   7.100547   2.434729   9.197958
    18  C    7.589847   5.095484   7.421544   2.441978   9.989504
    19  C    4.874701   7.421552   5.095490   9.989507   2.441979
    20  C    4.199273   7.100542   5.099439   9.197945   2.434726
    21  H    4.407473   3.425117   4.954945   2.172099   6.784683
    22  H    2.126981   4.954959   3.425119   6.784692   2.172097
    23  H    4.863314   2.148383   3.866373   3.423359   6.709642
    24  H    3.411836   3.866359   2.148382   6.709628   3.423364
    25  H    6.276689   3.410922   5.704881   2.188481   8.495760
    26  H    3.884574   5.704865   3.410909   8.495742   2.188479
    27  H    6.551696   5.144253   6.984966   2.768104   8.922527
    28  H    6.551691   5.144218   6.984971   2.768031   8.922577
    29  H    7.870269   6.096855   8.159785   3.320191  10.285992
    30  H    7.748211   5.141414   7.463050   2.779504  10.100901
    31  H    7.747551   5.140763   7.462327   2.779148  10.100154
    32  H    8.455448   6.092829   8.391170   3.322821  10.877435
    33  H    5.100376   7.462215   5.140638  10.100062   2.779068
    34  H    5.101082   7.463184   5.141561  10.101006   2.779588
    35  H    5.727127   8.391178   6.092835  10.877437   3.322824
    36  H    4.119803   6.984969   5.144254   8.922509   2.768104
    37  H    5.268301   8.159789   6.096860  10.285982   3.320204
    38  H    4.119721   6.984927   5.144168   8.922538   2.768004
                   11         12         13         14         15
    11  C    0.000000
    12  C    5.257600   0.000000
    13  C    2.799141   5.703925   0.000000
    14  C    5.703910   2.799146   4.697861   0.000000
    15  C    2.447499   6.618416   1.357753   5.969161   0.000000
    16  C    6.618400   2.447496   5.969161   1.357753   7.192080
    17  C    2.819415   7.914140   4.864212   8.516051   3.763035
    18  C    3.753708   8.905441   4.185902   8.706039   2.828175
    19  C    8.905439   3.753705   8.706057   4.185922   9.859570
    20  C    7.914124   2.819400   8.516053   4.864215   9.432151
    21  H    1.082376   5.466966   3.881505   6.381612   3.436489
    22  H    5.466972   1.082376   6.381631   3.881509   7.147842
    23  H    3.883377   6.182759   1.084756   4.675288   2.131333
    24  H    6.182743   3.883381   4.675286   1.084756   6.017026
    25  H    3.431815   7.656192   2.109018   6.804490   1.081390
    26  H    7.656172   3.431810   6.804483   2.109012   8.077337
    27  H    2.812686   7.610588   5.089349   8.401609   4.125882
    28  H    2.812587   7.610609   5.089307   8.401633   4.125817
    29  H    3.889592   9.000361   5.717666   9.568473   4.504948
    30  H    4.119174   9.083762   4.109719   8.686687   2.822776
    31  H    4.118784   9.083085   4.109086   8.685917   2.822267
    32  H    4.492898   9.734052   5.254439   9.707534   3.898055
    33  H    9.083005   4.118737   8.685804   4.108935   9.880037
    34  H    9.083845   4.119222   8.686845   4.109917   9.881060
    35  H    9.734050   4.492895   9.707552   5.254458  10.825728
    36  H    7.610561   2.812655   8.401622   5.089374   9.243017
    37  H    9.000346   3.889585   9.568486   5.717691  10.507673
    38  H    7.610577   2.812562   8.401591   5.089259   9.243012
                   16         17         18         19         20
    16  C    0.000000
    17  C    9.432150   0.000000
    18  C    9.859553   2.513415   0.000000
    19  C    2.828194  11.633325  12.404244   0.000000
    20  C    3.763039  10.401025  11.633312   2.513416   0.000000
    21  H    7.147821   2.470832   4.124274   9.206499   7.931809
    22  H    3.436486   7.931831   9.206507   4.124264   2.470810
    23  H    6.017028   5.843768   4.832415   8.829513   8.940839
    24  H    2.131334   8.940835   8.829492   4.832436   5.843772
    25  H    8.077343   4.129411   2.477616  10.800366  10.474471
    26  H    1.081388  10.474465  10.800343   2.477644   4.129423
    27  H    9.243012   1.095185   3.240165  11.335203  10.006656
    28  H    9.243048   1.095180   3.240356  11.335344  10.006721
    29  H   10.507664   1.088067   2.531399  12.721350  11.467705
    30  H    9.880915   3.239856   1.094510  12.483714  11.839220
    31  H    9.880140   3.239987   1.094504  12.482858  11.838514
    32  H   10.825711   2.527918   1.088088  13.308135  12.405732
    33  H    2.822116  11.838454  12.482756   1.094501   3.240103
    34  H    2.822971  11.839313  12.483824   1.094512   3.239740
    35  H    3.898075  12.405745  13.308135   1.088089   2.527923
    36  H    4.125909  10.006627  11.335183   3.240189   1.095185
    37  H    4.504977  11.467701  12.721339   2.531427   1.088069
    38  H    4.125772  10.006723  11.335307   3.240331   1.095180
                   21         22         23         24         25
    21  H    0.000000
    22  H    5.461848   0.000000
    23  H    4.965646   6.978735   0.000000
    24  H    6.978716   4.965650   4.402347   0.000000
    25  H    4.340331   8.215721   2.446894   6.723666   0.000000
    26  H    8.215698   4.340327   6.723660   2.446888   8.908968
    27  H    2.275987   7.558624   6.102006   8.894332   4.612457
    28  H    2.275794   7.558627   6.101972   8.894351   4.612349
    29  H    3.547066   9.001028   6.631724   9.956955   4.653497
    30  H    4.609217   9.451902   4.622625   8.732307   2.284984
    31  H    4.608980   9.451286   4.621977   8.731526   2.284678
    32  H    4.644576   9.951607   5.920342   9.873521   3.554340
    33  H    9.451222   4.608972   8.731397   4.621804  10.782907
    34  H    9.451956   4.609211   8.732487   4.622849  10.783951
    35  H    9.951598   4.644565   9.873542   5.920364  11.789175
    36  H    7.558581   2.275912   8.894354   6.102040  10.296419
    37  H    9.001002   3.547042   9.956974   6.631753  11.544883
    38  H    7.558598   2.275800   8.894305   6.101918  10.296395
                   26         27         28         29         30
    26  H    0.000000
    27  H   10.296408   0.000000
    28  H   10.296429   1.784273   0.000000
    29  H   11.544869   1.767810   1.767783   0.000000
    30  H   10.783789   4.107629   3.699988   3.287239   0.000000
    31  H   10.783012   3.699910   4.107790   3.287651   1.784286
    32  H   11.789153   3.285137   3.285581   2.074971   1.766693
    33  H    2.284491  11.500350  11.638050  12.922768  12.593181
    34  H    2.285234  11.638750  11.501275  12.923637  12.467228
    35  H    3.554370  12.070375  12.070624  13.491148  13.414016
    36  H    4.612503   9.511894   9.677850  11.059314  11.638651
    37  H    4.653540  11.059340  11.059406  12.529950  12.923546
    38  H    4.612305   9.677896   9.512049  11.059415  11.501169
                   31         32         33         34         35
    31  H    0.000000
    32  H    1.766697   0.000000
    33  H   12.465293  13.412997   0.000000
    34  H   12.593428  13.414102   1.784287   0.000000
    35  H   13.413075  14.182445   1.766689   1.766698   0.000000
    36  H   11.500393  12.070370   3.700091   4.107576   3.285090
    37  H   12.922833  13.491135   3.287845   3.287097   2.075003
    38  H   11.638085  12.070575   4.107838   3.699804   3.285644
                   36         37         38
    36  H    0.000000
    37  H    1.767812   0.000000
    38  H    1.784269   1.767781   0.000000
 Symmetry turned off by external request.
 Stoichiometry    C16H18N3S(1-)
 Framework group  C1[X(C16H18N3S)]
 Deg. of freedom   108
 Full point group                 C1      NOp   1
 Rotational constants (GHZ):           1.0620765           0.1327576           0.1183617
 Electric field and nuclear coordinate derivatives read from checkpoint file.
 Full mass-weighted force constant matrix:
 Low frequencies ---   -3.2757   -1.3160   -0.9016   -0.0014   -0.0006    0.0017
 Low frequencies ---   31.6472   48.0619   66.2461
 Diagonal vibrational polarizability:
      179.7517833       9.0449444      85.1853955
 Harmonic frequencies (cm**-1), IR intensities (KM/Mole), Raman scattering
 activities (A**4/AMU), depolarization ratios for plane and unpolarized
 incident light, reduced masses (AMU), force constants (mDyne/A),
 and normal coordinates:
                      1                      2                      3
                      A                      A                      A
 Frequencies --     31.6452                48.0616                66.2456
 Red. masses --      5.3971                 2.9269                 2.5217
 Frc consts  --      0.0032                 0.0040                 0.0065
 IR Inten    --      2.6297                 0.0000                 0.0007
  Atom  AN      X      Y      Z        X      Y      Z        X      Y      Z
     1  16     0.00   0.01   0.22     0.00   0.00  -0.00     0.00   0.00   0.10
     2   7    -0.00  -0.01  -0.12     0.00   0.00   0.03    -0.00  -0.00  -0.01
     3   7    -0.00  -0.01  -0.12    -0.00  -0.00  -0.03    -0.00  -0.00  -0.01
     4   7     0.00   0.00   0.10    -0.00   0.00   0.00    -0.00  -0.00  -0.05
     5   6     0.00   0.01   0.12    -0.00  -0.00  -0.01     0.00   0.00   0.02
     6   6     0.00   0.01   0.12     0.00   0.00   0.01     0.00   0.00   0.02
     7   6     0.00   0.00   0.09    -0.00  -0.00  -0.04    -0.00  -0.00  -0.03
     8   6     0.00   0.00   0.09     0.00   0.00   0.04    -0.00  -0.00  -0.03
     9   6    -0.00  -0.00  -0.03    -0.00  -0.00  -0.02    -0.00  -0.00  -0.00
    10   6    -0.00  -0.00  -0.03     0.00   0.00   0.02    -0.00  -0.00  -0.00
    11   6     0.00   0.00   0.07     0.00   0.00   0.02     0.00   0.00   0.02
    12   6     0.00   0.00   0.07    -0.00  -0.00  -0.02     0.00   0.00   0.02
    13   6     0.00   0.00   0.04    -0.00  -0.00  -0.10    -0.00  -0.00  -0.06
    14   6     0.00   0.00   0.04     0.00   0.00   0.10    -0.00  -0.00  -0.05
    15   6    -0.00  -0.00  -0.02    -0.00  -0.00  -0.11    -0.00  -0.00  -0.03
    16   6    -0.00  -0.00  -0.02     0.00   0.00   0.11    -0.00  -0.00  -0.03
    17   6    -0.00  -0.01  -0.12     0.00   0.01   0.22    -0.00  -0.01  -0.16
    18   6    -0.00  -0.01  -0.26    -0.00  -0.01  -0.11     0.00   0.01   0.15
    19   6    -0.00  -0.01  -0.26     0.00   0.01   0.11     0.00   0.01   0.15
    20   6    -0.00  -0.01  -0.12    -0.00  -0.01  -0.22    -0.00  -0.01  -0.16
    21   1     0.00   0.00   0.07     0.00   0.00   0.05     0.00   0.00   0.07
    22   1     0.00   0.00   0.07    -0.00  -0.00  -0.05     0.00   0.00   0.07
    23   1     0.00   0.00   0.03    -0.00  -0.01  -0.14    -0.00  -0.00  -0.10
    24   1     0.00   0.00   0.03     0.00   0.01   0.14    -0.00  -0.00  -0.10
    25   1    -0.00  -0.00  -0.07    -0.00  -0.01  -0.15    -0.00  -0.00  -0.07
    26   1    -0.00  -0.00  -0.07     0.00   0.01   0.15    -0.00  -0.00  -0.07
    27   1    -0.06   0.01  -0.08     0.09   0.13   0.23    -0.14  -0.09  -0.12
    28   1     0.06  -0.01  -0.08    -0.09  -0.11   0.25     0.14   0.08  -0.13
    29   1    -0.00  -0.01  -0.18     0.00   0.02   0.36    -0.00  -0.02  -0.36
    30   1     0.10  -0.02  -0.26     0.07  -0.05  -0.14    -0.16  -0.05   0.12
    31   1    -0.10  -0.01  -0.26    -0.08   0.04  -0.14     0.16   0.06   0.11
    32   1    -0.00  -0.02  -0.35    -0.00  -0.01  -0.16     0.00   0.02   0.35
    33   1     0.10  -0.01  -0.26    -0.07  -0.04   0.15    -0.16   0.05   0.11
    34   1    -0.10  -0.02  -0.26     0.07   0.05   0.14     0.16  -0.04   0.12
    35   1    -0.00  -0.02  -0.35     0.00   0.01   0.16     0.00   0.02   0.35
    36   1     0.06   0.01  -0.08     0.09  -0.13  -0.23     0.14  -0.09  -0.13
    37   1    -0.00  -0.01  -0.18    -0.00  -0.02  -0.36    -0.00  -0.02  -0.36
    38   1    -0.06  -0.01  -0.08    -0.09   0.11  -0.24    -0.14   0.08  -0.13
                      4                      5                      6
                      A                      A                      A
 Frequencies --     70.8194               109.3683               127.1522
 Red. masses --      3.0127                 4.2761                 1.8616
 Frc consts  --      0.0089                 0.0301                 0.0177
 IR Inten    --      0.0000                 1.8893                 0.0000
  Atom  AN      X      Y      Z        X      Y      Z        X      Y      Z
     1  16    -0.00   0.00   0.00     0.00  -0.10   0.00     0.00  -0.00  -0.00
     2   7    -0.00  -0.00  -0.01    -0.06   0.09  -0.00    -0.00  -0.00  -0.07
     3   7     0.00   0.00   0.01     0.06   0.10  -0.00     0.00   0.00   0.07
     4   7     0.00   0.00  -0.00     0.00  -0.11   0.01    -0.00  -0.00  -0.00
     5   6     0.00   0.00   0.06    -0.02  -0.10   0.00    -0.00  -0.00  -0.06
     6   6    -0.00  -0.00  -0.06     0.02  -0.10   0.00     0.00   0.00   0.06
     7   6     0.00   0.00   0.07     0.00  -0.10   0.00    -0.00  -0.00  -0.00
     8   6    -0.00  -0.00  -0.07    -0.00  -0.10   0.00    -0.00   0.00   0.00
     9   6     0.00   0.00   0.07    -0.02   0.01  -0.00    -0.00  -0.00  -0.07
    10   6    -0.00  -0.00  -0.07     0.02   0.01  -0.00     0.00   0.00   0.07
    11   6     0.00   0.00   0.06    -0.05  -0.05   0.00    -0.00  -0.01  -0.12
    12   6    -0.00  -0.00  -0.06     0.05  -0.05   0.00     0.00   0.01   0.12
    13   6     0.00   0.01   0.14     0.04  -0.05   0.00     0.00   0.00   0.04
    14   6    -0.00  -0.01  -0.14    -0.04  -0.05   0.00    -0.00  -0.00  -0.04
    15   6     0.00   0.01   0.14     0.03  -0.00  -0.00     0.00   0.00   0.02
    16   6    -0.00  -0.01  -0.14    -0.03  -0.00   0.00    -0.00  -0.00  -0.02
    17   6     0.00   0.00   0.01    -0.18   0.11  -0.00     0.00   0.00   0.06
    18   6    -0.00  -0.01  -0.19     0.00   0.19  -0.01     0.00   0.00   0.06
    19   6     0.00   0.01   0.19    -0.01   0.19  -0.01    -0.00  -0.00  -0.06
    20   6    -0.00  -0.00  -0.01     0.18   0.11  -0.01    -0.00  -0.00  -0.06
    21   1     0.00   0.00   0.02    -0.10  -0.05   0.00    -0.00  -0.01  -0.19
    22   1    -0.00  -0.00  -0.02     0.10  -0.04   0.00     0.00   0.01   0.19
    23   1     0.00   0.01   0.19     0.09  -0.06   0.00     0.00   0.01   0.11
    24   1    -0.00  -0.01  -0.19    -0.09  -0.06   0.00    -0.00  -0.01  -0.11
    25   1     0.00   0.01   0.20     0.05   0.03  -0.00     0.00   0.00   0.10
    26   1    -0.00  -0.01  -0.20    -0.05   0.03  -0.00    -0.00  -0.00  -0.10
    27   1     0.06   0.01  -0.01    -0.22   0.07  -0.00     0.06   0.08   0.06
    28   1    -0.06  -0.01  -0.01    -0.22   0.07  -0.00    -0.06  -0.07   0.07
    29   1     0.00   0.00   0.09    -0.20   0.20  -0.01     0.00   0.01   0.15
    30   1     0.19   0.07  -0.14     0.05   0.19  -0.01     0.11   0.28   0.23
    31   1    -0.19  -0.08  -0.14     0.05   0.19  -0.01    -0.11  -0.26   0.26
    32   1    -0.00  -0.02  -0.44    -0.05   0.26  -0.01    -0.00  -0.01  -0.26
    33   1    -0.19   0.08   0.14    -0.06   0.19  -0.01    -0.11   0.26  -0.26
    34   1     0.20  -0.06   0.14    -0.06   0.19  -0.01     0.11  -0.28  -0.24
    35   1     0.00   0.02   0.44     0.04   0.26  -0.01     0.00   0.01   0.26
    36   1     0.06  -0.01   0.01     0.22   0.08  -0.00     0.06  -0.07  -0.06
    37   1    -0.00  -0.00  -0.09     0.20   0.20  -0.01    -0.00  -0.01  -0.15
    38   1    -0.06   0.01   0.01     0.22   0.08  -0.00    -0.06   0.07  -0.07
                      7                      8                      9
                      A                      A                      A
 Frequencies --    131.7831               146.5398               148.9179
 Red. masses --      2.6593                 1.4981                 1.2734
 Frc consts  --      0.0272                 0.0190                 0.0166
 IR Inten    --      2.8730                 0.5445                 0.0000
  Atom  AN      X      Y      Z        X      Y      Z        X      Y      Z
     1  16     0.00   0.00   0.09     0.00   0.00   0.02     0.00  -0.00  -0.00
     2   7    -0.00  -0.01  -0.11     0.00   0.00   0.03    -0.00  -0.00  -0.06
     3   7    -0.00  -0.01  -0.11     0.00   0.00   0.03     0.00   0.00   0.06
     4   7     0.00   0.00   0.09     0.00   0.00   0.10    -0.00  -0.00   0.00
     5   6    -0.00  -0.00  -0.03    -0.00  -0.00  -0.01     0.00   0.00   0.04
     6   6    -0.00  -0.00  -0.03    -0.00  -0.00  -0.01    -0.00  -0.00  -0.04
     7   6     0.00   0.00   0.03     0.00   0.00   0.06     0.00   0.00   0.00
     8   6     0.00   0.00   0.03     0.00   0.00   0.06    -0.00  -0.00  -0.00
     9   6    -0.00  -0.01  -0.11    -0.00  -0.00  -0.04     0.00   0.00   0.00
    10   6    -0.00  -0.01  -0.11    -0.00  -0.00  -0.04    -0.00  -0.00  -0.00
    11   6    -0.00  -0.01  -0.12    -0.00  -0.00  -0.07     0.00   0.00   0.08
    12   6    -0.00  -0.01  -0.12    -0.00  -0.00  -0.07    -0.00  -0.00  -0.08
    13   6     0.00   0.00   0.02     0.00   0.00   0.00    -0.00  -0.00  -0.01
    14   6     0.00   0.00   0.02     0.00   0.00   0.00     0.00   0.00   0.01
    15   6    -0.00  -0.00  -0.05    -0.00  -0.00  -0.07    -0.00  -0.00  -0.02
    16   6    -0.00  -0.00  -0.05    -0.00  -0.00  -0.07     0.00   0.00   0.02
    17   6     0.00   0.00   0.08     0.00   0.00   0.01    -0.00   0.00   0.02
    18   6     0.00   0.00   0.09    -0.00   0.00   0.00     0.00   0.00   0.01
    19   6     0.00   0.00   0.09     0.00   0.00   0.00     0.00  -0.00  -0.01
    20   6     0.00   0.00   0.08     0.00   0.00   0.01    -0.00  -0.00  -0.02
    21   1    -0.00  -0.01  -0.16    -0.00  -0.01  -0.13     0.00   0.01   0.15
    22   1    -0.00  -0.01  -0.16    -0.00  -0.01  -0.13    -0.00  -0.01  -0.15
    23   1     0.00   0.00   0.06     0.00   0.00   0.00    -0.00  -0.00  -0.03
    24   1     0.00   0.00   0.06    -0.00   0.00   0.01     0.00   0.00   0.03
    25   1    -0.00  -0.00  -0.04    -0.00  -0.01  -0.14    -0.00  -0.00  -0.03
    26   1    -0.00  -0.00  -0.04    -0.00  -0.01  -0.14     0.00   0.00   0.03
    27   1    -0.04   0.12   0.15     0.19  -0.03  -0.10    -0.30   0.08   0.20
    28   1     0.04  -0.11   0.17    -0.19   0.02  -0.10     0.30  -0.06   0.21
    29   1     0.00   0.00   0.05     0.00   0.01   0.24    -0.00  -0.02  -0.34
    30   1     0.04   0.27   0.27    -0.15  -0.23  -0.14     0.05   0.13   0.10
    31   1    -0.04  -0.25   0.29     0.15   0.21  -0.16    -0.04  -0.12   0.11
    32   1    -0.00  -0.01  -0.15     0.00   0.02   0.32    -0.00  -0.01  -0.13
    33   1     0.05  -0.25   0.29    -0.15   0.21  -0.16    -0.05   0.12  -0.11
    34   1    -0.05   0.27   0.27     0.15  -0.23  -0.14     0.05  -0.13  -0.10
    35   1    -0.00  -0.01  -0.15     0.00   0.02   0.32     0.00   0.01   0.13
    36   1     0.04   0.12   0.15    -0.19  -0.03  -0.10    -0.30  -0.08  -0.20
    37   1     0.00   0.00   0.05     0.00   0.01   0.24     0.00   0.02   0.34
    38   1    -0.04  -0.11   0.17     0.19   0.02  -0.10     0.30   0.06  -0.21
                     10                     11                     12
                      A                      A                      A
 Frequencies --    160.7049               196.2888               202.1085
 Red. masses --      1.7254                 3.9437                 1.5468
 Frc consts  --      0.0263                 0.0895                 0.0372
 IR Inten    --      0.0010                 0.0052                 0.0000
  Atom  AN      X      Y      Z        X      Y      Z        X      Y      Z
     1  16     0.00   0.00   0.09    -0.09  -0.00   0.00     0.00   0.00  -0.00
     2   7     0.00   0.00   0.04     0.03   0.01  -0.00    -0.00  -0.00  -0.05
     3   7     0.00   0.00   0.04     0.03  -0.01   0.00     0.00   0.00   0.05
     4   7    -0.00  -0.00  -0.08     0.02   0.00  -0.00    -0.00   0.00   0.00
     5   6    -0.00  -0.00  -0.04    -0.03   0.08  -0.00     0.00  -0.00  -0.01
     6   6    -0.00  -0.00  -0.04    -0.02  -0.08   0.00     0.00   0.00   0.01
     7   6    -0.00  -0.00  -0.06    -0.01   0.07  -0.00     0.00   0.00   0.05
     8   6    -0.00  -0.00  -0.06    -0.01  -0.07   0.00    -0.00  -0.00  -0.05
     9   6     0.00   0.00   0.02    -0.02   0.10  -0.01    -0.00  -0.00  -0.04
    10   6     0.00   0.00   0.02    -0.01  -0.10   0.01     0.00   0.00   0.04
    11   6    -0.00  -0.00  -0.05    -0.02   0.11  -0.01    -0.00  -0.00  -0.07
    12   6    -0.00  -0.00  -0.05    -0.02  -0.11   0.01     0.00   0.00   0.07
    13   6    -0.00  -0.00  -0.00    -0.01   0.09  -0.00     0.00   0.00   0.09
    14   6    -0.00  -0.00  -0.00    -0.01  -0.09   0.00    -0.00  -0.00  -0.09
    15   6     0.00   0.00   0.07    -0.02   0.11  -0.00     0.00   0.00   0.02
    16   6     0.00   0.00   0.07    -0.02  -0.11   0.00     0.00  -0.00  -0.02
    17   6    -0.00  -0.00  -0.04     0.21  -0.01   0.00    -0.00   0.00   0.06
    18   6     0.00   0.00   0.00    -0.07  -0.13   0.01     0.00  -0.00  -0.02
    19   6    -0.00   0.00   0.00    -0.07   0.13  -0.01     0.00   0.00   0.02
    20   6    -0.00  -0.00  -0.04     0.20   0.01  -0.00    -0.00  -0.00  -0.06
    21   1    -0.00  -0.00  -0.10    -0.02   0.11  -0.01    -0.00  -0.01  -0.11
    22   1    -0.00  -0.00  -0.10    -0.02  -0.11   0.01     0.00   0.01   0.11
    23   1     0.00   0.00   0.01     0.01   0.09  -0.00     0.00   0.01   0.15
    24   1     0.00   0.00   0.01     0.01  -0.09   0.00    -0.00  -0.01  -0.15
    25   1     0.00   0.01   0.16    -0.03   0.10  -0.00     0.00   0.00   0.02
    26   1     0.00   0.01   0.16    -0.03  -0.11   0.00     0.00  -0.00  -0.02
    27   1     0.29  -0.09  -0.22     0.26   0.05  -0.00    -0.15   0.09   0.18
    28   1    -0.29   0.07  -0.23     0.26   0.04  -0.00     0.15  -0.08   0.18
    29   1     0.00   0.01   0.30     0.23  -0.14   0.00    -0.00  -0.00  -0.12
    30   1     0.10   0.09   0.06    -0.14  -0.13   0.01    -0.17  -0.22  -0.15
    31   1    -0.10  -0.09   0.07    -0.14  -0.13   0.01     0.17   0.20  -0.18
    32   1    -0.00  -0.01  -0.17     0.01  -0.23   0.01     0.00   0.02   0.32
    33   1     0.10  -0.09   0.07    -0.14   0.13  -0.00     0.18  -0.20   0.17
    34   1    -0.10   0.09   0.06    -0.14   0.13  -0.00    -0.17   0.22   0.16
    35   1    -0.00  -0.01  -0.17     0.00   0.23  -0.01    -0.00  -0.02  -0.32
    36   1    -0.29  -0.09  -0.22     0.26  -0.04  -0.00    -0.15  -0.10  -0.17
    37   1     0.00   0.01   0.30     0.23   0.15  -0.01    -0.00   0.00   0.12
    38   1     0.28   0.07  -0.23     0.26  -0.04  -0.00     0.15   0.08  -0.18
                     13                     14                     15
                      A                      A                      A
 Frequencies --    221.5278               245.8755               254.5081
 Red. masses --      2.0075                 5.2032                 3.0358
 Frc consts  --      0.0580                 0.1853                 0.1159
 IR Inten    --      1.1265                 0.0367                 0.0000
  Atom  AN      X      Y      Z        X      Y      Z        X      Y      Z
     1  16     0.00   0.00   0.07    -0.00   0.12  -0.01     0.00  -0.00   0.00
     2   7    -0.00   0.00   0.01    -0.15  -0.05   0.00     0.00   0.01   0.14
     3   7     0.00   0.00   0.01     0.15  -0.05   0.00    -0.00  -0.01  -0.14
     4   7    -0.00  -0.00  -0.05    -0.00   0.03  -0.00     0.00   0.00   0.00
     5   6    -0.00  -0.00  -0.09    -0.06   0.06  -0.00    -0.00  -0.01  -0.15
     6   6    -0.00  -0.00  -0.09     0.06   0.06  -0.00     0.00   0.01   0.15
     7   6    -0.00  -0.00  -0.06    -0.04   0.06  -0.00    -0.00  -0.01  -0.14
     8   6    -0.00  -0.00  -0.06     0.04   0.06  -0.00     0.00   0.01   0.14
     9   6    -0.00  -0.00  -0.00    -0.13  -0.05   0.00     0.00   0.00   0.05
    10   6     0.00  -0.00  -0.00     0.13  -0.05   0.00    -0.00  -0.00  -0.05
    11   6    -0.00  -0.00  -0.09    -0.07   0.01  -0.00    -0.00  -0.00  -0.11
    12   6    -0.00  -0.00  -0.09     0.07   0.01  -0.00     0.00   0.00   0.11
    13   6     0.00   0.00   0.06    -0.10  -0.00   0.00    -0.00  -0.00  -0.07
    14   6     0.00   0.00   0.06     0.10  -0.00  -0.00     0.00   0.00   0.07
    15   6     0.00   0.00   0.10    -0.10  -0.04   0.00     0.00   0.00   0.10
    16   6     0.00   0.00   0.10     0.10  -0.04   0.00    -0.00  -0.00  -0.10
    17   6     0.00   0.00   0.04    -0.21  -0.05   0.00    -0.00  -0.00  -0.00
    18   6    -0.00  -0.00  -0.04    -0.18  -0.06   0.00    -0.00  -0.00  -0.05
    19   6     0.00  -0.00  -0.04     0.18  -0.06   0.00     0.00   0.00   0.05
    20   6     0.00   0.00   0.04     0.21  -0.05   0.00    -0.00   0.00   0.00
    21   1    -0.00  -0.01  -0.11    -0.03  -0.00   0.00    -0.00  -0.00  -0.08
    22   1    -0.00  -0.01  -0.11     0.03  -0.00  -0.00     0.00   0.00   0.08
    23   1     0.00   0.01   0.13    -0.18   0.01   0.00    -0.00  -0.00  -0.05
    24   1     0.00   0.01   0.13     0.17   0.01  -0.00     0.00   0.00   0.05
    25   1     0.00   0.01   0.21    -0.10  -0.04   0.00     0.00   0.01   0.26
    26   1     0.00   0.01   0.21     0.10  -0.04   0.00    -0.00  -0.01  -0.26
    27   1    -0.21   0.06   0.18    -0.23  -0.07   0.00    -0.26  -0.05   0.10
    28   1     0.21  -0.04   0.18    -0.23  -0.07   0.00     0.26   0.06   0.10
    29   1    -0.00  -0.01  -0.21    -0.22  -0.01   0.00    -0.00  -0.02  -0.34
    30   1    -0.09  -0.19  -0.16    -0.19  -0.06   0.00     0.12  -0.05  -0.09
    31   1     0.09   0.18  -0.18    -0.19  -0.07   0.00    -0.12   0.04  -0.09
    32   1     0.00   0.01   0.20    -0.16  -0.08   0.00    -0.00  -0.01  -0.13
    33   1    -0.10   0.18  -0.18     0.19  -0.06   0.00    -0.12  -0.04   0.09
    34   1     0.10  -0.19  -0.16     0.19  -0.06   0.00     0.12   0.05   0.08
    35   1     0.00   0.01   0.20     0.16  -0.08   0.00     0.00   0.01   0.13
    36   1     0.21   0.06   0.17     0.23  -0.07   0.00    -0.26   0.05  -0.10
    37   1    -0.00  -0.01  -0.21     0.22  -0.00  -0.00     0.00   0.02   0.34
    38   1    -0.21  -0.05   0.18     0.23  -0.07   0.00     0.26  -0.06  -0.10
                     16                     17                     18
                      A                      A                      A
 Frequencies --    287.2419               296.8392               343.9713
 Red. masses --      3.8364                 2.7796                 3.4898
 Frc consts  --      0.1865                 0.1443                 0.2433
 IR Inten    --      1.0387                 8.7902                 0.0001
  Atom  AN      X      Y      Z        X      Y      Z        X      Y      Z
     1  16     0.00  -0.10   0.00     0.00   0.00   0.02     0.00  -0.00   0.00
     2   7    -0.06   0.07  -0.00     0.00   0.01   0.20    -0.00  -0.01  -0.18
     3   7     0.06   0.07  -0.00     0.00   0.01   0.20     0.00   0.01   0.18
     4   7     0.00  -0.09   0.00     0.00   0.01   0.13     0.00  -0.00   0.00
     5   6    -0.03  -0.06   0.00    -0.00  -0.00  -0.06    -0.00  -0.00  -0.05
     6   6     0.03  -0.06   0.00    -0.00  -0.00  -0.06     0.00   0.00   0.05
     7   6    -0.01  -0.07   0.00     0.00   0.00   0.03    -0.00  -0.01  -0.17
     8   6     0.01  -0.07   0.00     0.00   0.00   0.03     0.00   0.01   0.17
     9   6    -0.07   0.11  -0.00    -0.00   0.00   0.03     0.00   0.00   0.03
    10   6     0.07   0.11  -0.01     0.00   0.00   0.03    -0.00  -0.00  -0.03
    11   6    -0.08   0.05  -0.00    -0.00  -0.00  -0.09     0.00   0.00   0.10
    12   6     0.08   0.05  -0.00    -0.00  -0.00  -0.09    -0.00  -0.00  -0.10
    13   6     0.03   0.00  -0.00    -0.00  -0.00  -0.05    -0.00  -0.00  -0.07
    14   6    -0.03   0.00   0.00    -0.00  -0.00  -0.05     0.00   0.00   0.07
    15   6    -0.02   0.10  -0.00    -0.00  -0.00  -0.07     0.00   0.01   0.16
    16   6     0.02   0.10  -0.00    -0.00  -0.00  -0.07    -0.00  -0.01  -0.16
    17   6     0.11   0.05  -0.00     0.00  -0.00  -0.02    -0.00   0.00   0.02
    18   6    -0.18  -0.09   0.00    -0.00  -0.00  -0.02    -0.00   0.00   0.01
    19   6     0.18  -0.08   0.00     0.00  -0.00  -0.02    -0.00  -0.00  -0.01
    20   6    -0.11   0.05  -0.00    -0.00  -0.00  -0.02    -0.00  -0.00  -0.02
    21   1    -0.15   0.06  -0.00    -0.00  -0.00  -0.10     0.00   0.01   0.17
    22   1     0.14   0.06  -0.00    -0.00  -0.00  -0.10    -0.00  -0.01  -0.17
    23   1     0.12  -0.01   0.00    -0.00  -0.00  -0.09     0.00  -0.00  -0.05
    24   1    -0.12  -0.01   0.00    -0.00  -0.00  -0.09     0.00   0.00   0.05
    25   1     0.00   0.14  -0.01    -0.00  -0.00  -0.11     0.00   0.02   0.33
    26   1    -0.00   0.14  -0.01    -0.00  -0.00  -0.11    -0.00  -0.02  -0.33
    27   1     0.16   0.11  -0.01    -0.20  -0.12   0.02     0.15   0.12  -0.01
    28   1     0.16   0.11  -0.01     0.20   0.12   0.01    -0.15  -0.11   0.01
    29   1     0.14  -0.08   0.00    -0.00  -0.01  -0.31     0.00   0.01   0.23
    30   1    -0.27  -0.09   0.01     0.22   0.06   0.01    -0.19  -0.05  -0.02
    31   1    -0.27  -0.09   0.01    -0.22  -0.06   0.01     0.18   0.05  -0.03
    32   1    -0.08  -0.22   0.01    -0.00  -0.01  -0.29     0.00   0.01   0.24
    33   1     0.27  -0.09   0.00     0.22  -0.06   0.01     0.19  -0.05   0.03
    34   1     0.27  -0.09   0.00    -0.22   0.06   0.01    -0.19   0.05   0.02
    35   1     0.09  -0.22   0.01    -0.00  -0.01  -0.29    -0.00  -0.01  -0.24
    36   1    -0.17   0.11  -0.00     0.21  -0.12   0.02     0.15  -0.11   0.00
    37   1    -0.14  -0.08   0.01    -0.00  -0.01  -0.31    -0.00  -0.01  -0.23
    38   1    -0.17   0.10  -0.00    -0.21   0.12   0.01    -0.15   0.11  -0.01
                     19                     20                     21
                      A                      A                      A
 Frequencies --    363.7320               398.1670               441.3577
 Red. masses --      4.1962                 5.0467                 3.5141
 Frc consts  --      0.3271                 0.4714                 0.4033
 IR Inten    --      3.6466                29.3142                 1.3385
  Atom  AN      X      Y      Z        X      Y      Z        X      Y      Z
     1  16    -0.13  -0.00   0.00     0.13   0.00  -0.00    -0.00  -0.00  -0.03
     2   7     0.09  -0.06   0.00     0.01   0.09  -0.00    -0.00  -0.00  -0.01
     3   7     0.09   0.06  -0.00     0.01  -0.09   0.00    -0.00  -0.00  -0.01
     4   7    -0.07  -0.00   0.00    -0.19  -0.00   0.00    -0.00  -0.01  -0.11
     5   6    -0.04   0.07  -0.00    -0.02  -0.14   0.01     0.00   0.01   0.21
     6   6    -0.04  -0.07   0.00    -0.02   0.14  -0.01     0.00   0.01   0.21
     7   6    -0.09   0.07  -0.00    -0.11  -0.11   0.01     0.00   0.00   0.11
     8   6    -0.09  -0.07   0.00    -0.12   0.11  -0.00     0.00   0.01   0.11
     9   6     0.05  -0.03   0.00     0.00   0.03  -0.00     0.00   0.00   0.03
    10   6     0.05   0.03  -0.00     0.00  -0.03   0.00     0.00   0.00   0.03
    11   6     0.02  -0.00   0.00    -0.04  -0.08   0.00    -0.00  -0.01  -0.15
    12   6     0.02   0.00  -0.00    -0.04   0.08  -0.00    -0.00  -0.01  -0.15
    13   6    -0.10   0.07  -0.00    -0.08  -0.06   0.00    -0.00  -0.01  -0.13
    14   6    -0.10  -0.07   0.00    -0.08   0.06  -0.00    -0.00  -0.01  -0.13
    15   6    -0.06  -0.01   0.00    -0.08   0.01  -0.00     0.00   0.00   0.10
    16   6    -0.06   0.01  -0.00    -0.08  -0.01   0.00     0.00   0.00   0.10
    17   6     0.04  -0.05   0.00     0.20   0.10  -0.01     0.00   0.00   0.01
    18   6     0.23   0.10  -0.01     0.00   0.10  -0.00    -0.00  -0.00  -0.00
    19   6     0.23  -0.09   0.00     0.01  -0.10   0.00    -0.00  -0.00  -0.00
    20   6     0.04   0.05  -0.00     0.20  -0.10   0.00    -0.00   0.00   0.01
    21   1     0.05  -0.01   0.00    -0.10  -0.06   0.00    -0.00  -0.02  -0.47
    22   1     0.05   0.01  -0.00    -0.10   0.06  -0.00    -0.00  -0.02  -0.47
    23   1    -0.15   0.07  -0.00     0.01  -0.07   0.00    -0.00  -0.02  -0.38
    24   1    -0.15  -0.07   0.00     0.01   0.07  -0.00    -0.00  -0.02  -0.38
    25   1    -0.09  -0.07   0.00    -0.09  -0.01   0.00     0.00   0.00   0.09
    26   1    -0.09   0.07  -0.00    -0.09   0.01  -0.00     0.00   0.00   0.09
    27   1     0.03  -0.06   0.00     0.28   0.18  -0.01    -0.04   0.03   0.04
    28   1     0.03  -0.06   0.00     0.28   0.18  -0.01     0.04  -0.02   0.04
    29   1     0.03  -0.00   0.00     0.24  -0.08   0.00    -0.00  -0.00  -0.05
    30   1     0.33   0.10  -0.01     0.01   0.09  -0.01    -0.01  -0.01  -0.01
    31   1     0.33   0.10  -0.01     0.01   0.09  -0.00     0.01   0.01  -0.01
    32   1     0.12   0.25  -0.01     0.01   0.08  -0.00     0.00   0.00   0.01
    33   1     0.34  -0.10   0.00     0.01  -0.09   0.00    -0.01   0.01  -0.01
    34   1     0.33  -0.10   0.00     0.01  -0.09   0.01     0.01  -0.01  -0.01
    35   1     0.12  -0.24   0.01     0.01  -0.08   0.00     0.00   0.00   0.01
    36   1     0.03   0.06  -0.00     0.28  -0.17   0.01     0.04   0.03   0.04
    37   1     0.03   0.00  -0.00     0.24   0.08  -0.00    -0.00  -0.00  -0.05
    38   1     0.03   0.06  -0.00     0.28  -0.17   0.01    -0.04  -0.03   0.04
                     22                     23                     24
                      A                      A                      A
 Frequencies --    453.5287               463.3730               470.7180
 Red. masses --      5.9740                 7.0990                 3.0244
 Frc consts  --      0.7240                 0.8981                 0.3948
 IR Inten    --      4.8498                54.0646                 0.0001
  Atom  AN      X      Y      Z        X      Y      Z        X      Y      Z
     1  16    -0.00   0.25  -0.01     0.26   0.00  -0.00     0.00   0.00  -0.00
     2   7    -0.05   0.05  -0.00     0.05  -0.01   0.00    -0.00  -0.00  -0.04
     3   7     0.05   0.05  -0.00     0.05   0.01  -0.00     0.00   0.00   0.04
     4   7     0.00  -0.20   0.01    -0.09  -0.00   0.00    -0.00  -0.00  -0.00
     5   6    -0.11  -0.03   0.00     0.13   0.06  -0.00     0.00   0.01   0.17
     6   6     0.11  -0.02   0.00     0.13  -0.06   0.00    -0.00  -0.01  -0.17
     7   6    -0.05  -0.08   0.00    -0.11   0.10  -0.00     0.00   0.00   0.09
     8   6     0.06  -0.08   0.00    -0.10  -0.10   0.01    -0.00  -0.00  -0.09
     9   6    -0.01  -0.07   0.00     0.03   0.08  -0.00     0.00   0.00   0.07
    10   6     0.02  -0.07   0.00     0.03  -0.08   0.00    -0.00  -0.00  -0.07
    11   6    -0.07  -0.14   0.01     0.10   0.12  -0.01    -0.00  -0.00  -0.11
    12   6     0.07  -0.14   0.01     0.10  -0.12   0.00     0.00   0.00   0.11
    13   6    -0.02  -0.05   0.00    -0.16   0.13  -0.01    -0.00  -0.01  -0.15
    14   6     0.02  -0.05   0.00    -0.15  -0.14   0.01     0.00   0.01   0.15
    15   6     0.01  -0.09   0.00    -0.15   0.12  -0.01     0.00   0.01   0.11
    16   6    -0.01  -0.09   0.00    -0.15  -0.12   0.01    -0.00  -0.01  -0.11
    17   6     0.17   0.05  -0.00    -0.13   0.00   0.00    -0.00   0.00   0.01
    18   6    -0.02   0.11  -0.00     0.01  -0.07   0.00     0.00  -0.00  -0.00
    19   6     0.02   0.11  -0.01     0.01   0.07  -0.00     0.00   0.00   0.00
    20   6    -0.17   0.05  -0.00    -0.13  -0.01   0.00    -0.00  -0.00  -0.01
    21   1    -0.01  -0.14   0.01     0.04   0.12  -0.01    -0.00  -0.02  -0.43
    22   1     0.01  -0.14   0.01     0.04  -0.12   0.00     0.00   0.02   0.43
    23   1    -0.04  -0.05   0.00    -0.14   0.13  -0.00    -0.00  -0.02  -0.45
    24   1     0.04  -0.05   0.00    -0.14  -0.14   0.01     0.00   0.02   0.45
    25   1    -0.00  -0.11   0.01    -0.20   0.05  -0.00     0.00   0.00   0.06
    26   1     0.00  -0.11   0.00    -0.20  -0.05   0.00    -0.00  -0.00  -0.06
    27   1     0.27   0.15  -0.01    -0.21  -0.07   0.01    -0.02   0.04   0.04
    28   1     0.27   0.15  -0.01    -0.21  -0.07   0.00     0.02  -0.04   0.04
    29   1     0.22  -0.16   0.01    -0.17   0.18  -0.01    -0.00  -0.00  -0.03
    30   1     0.00   0.10  -0.01    -0.04  -0.07   0.00    -0.02  -0.00  -0.00
    31   1     0.00   0.10  -0.00    -0.04  -0.07   0.00     0.02   0.00  -0.00
    32   1    -0.04   0.12  -0.01     0.04  -0.12   0.01     0.00   0.00   0.02
    33   1    -0.01   0.10  -0.00    -0.04   0.07  -0.00     0.02  -0.00   0.00
    34   1    -0.01   0.10  -0.01    -0.04   0.07  -0.00    -0.02   0.00   0.00
    35   1     0.04   0.12  -0.01     0.04   0.12  -0.01    -0.00  -0.00  -0.02
    36   1    -0.27   0.14  -0.01    -0.21   0.07  -0.00    -0.02  -0.04  -0.04
    37   1    -0.21  -0.16   0.01    -0.17  -0.18   0.01    -0.00   0.00   0.03
    38   1    -0.27   0.14  -0.00    -0.21   0.07  -0.00     0.02   0.04  -0.04
                     25                     26                     27
                      A                      A                      A
 Frequencies --    475.6025               502.0339               513.8488
 Red. masses --      5.6156                 3.7720                 4.8000
 Frc consts  --      0.7484                 0.5601                 0.7467
 IR Inten    --      1.8729                 0.0501                 0.0076
  Atom  AN      X      Y      Z        X      Y      Z        X      Y      Z
     1  16     0.00   0.00   0.01    -0.00   0.08  -0.00     0.00  -0.13   0.01
     2   7    -0.00  -0.01  -0.12     0.05   0.07  -0.00    -0.07   0.06  -0.00
     3   7    -0.00  -0.01  -0.12    -0.05   0.07  -0.00     0.07   0.07  -0.00
     4   7     0.00   0.02   0.34    -0.00   0.02  -0.00    -0.00   0.22  -0.01
     5   6    -0.00  -0.01  -0.16     0.05   0.00  -0.00     0.08   0.03  -0.00
     6   6    -0.00  -0.01  -0.16    -0.05   0.00   0.00    -0.08   0.03  -0.00
     7   6    -0.00  -0.00  -0.03     0.05  -0.01   0.00     0.03   0.09  -0.00
     8   6    -0.00  -0.00  -0.03    -0.05  -0.01   0.00    -0.03   0.09  -0.00
     9   6     0.00   0.01   0.14     0.11  -0.04   0.00    -0.00  -0.10   0.00
    10   6     0.00   0.01   0.14    -0.11  -0.04   0.00     0.01  -0.10   0.00
    11   6     0.00   0.00   0.06     0.08  -0.08   0.00     0.08  -0.03   0.00
    12   6     0.00   0.00   0.06    -0.08  -0.08   0.00    -0.08  -0.03   0.00
    13   6    -0.00  -0.01  -0.23     0.12   0.01  -0.00    -0.08  -0.06   0.00
    14   6    -0.00  -0.01  -0.23    -0.12   0.01   0.00     0.08  -0.06   0.00
    15   6     0.00   0.01   0.15     0.16  -0.05   0.00    -0.03  -0.16   0.01
    16   6     0.00   0.01   0.15    -0.16  -0.05   0.00     0.03  -0.16   0.01
    17   6     0.00   0.00   0.00    -0.07   0.11  -0.00     0.09   0.08  -0.00
    18   6    -0.00  -0.00  -0.01    -0.10  -0.11   0.01    -0.11   0.10  -0.00
    19   6     0.00  -0.00  -0.01     0.10  -0.11   0.00     0.11   0.10  -0.01
    20   6    -0.00   0.00   0.00     0.07   0.11  -0.01    -0.09   0.08  -0.00
    21   1     0.00   0.00   0.03     0.11  -0.08   0.00     0.20  -0.04   0.00
    22   1     0.00   0.00   0.03    -0.11  -0.08   0.00    -0.20  -0.04   0.00
    23   1    -0.00  -0.02  -0.48     0.12   0.01  -0.00    -0.24  -0.04   0.00
    24   1    -0.00  -0.02  -0.48    -0.12   0.00   0.00     0.24  -0.04   0.00
    25   1     0.00   0.01   0.15     0.12  -0.09   0.00    -0.06  -0.21   0.01
    26   1     0.00   0.01   0.15    -0.12  -0.09   0.00     0.07  -0.21   0.01
    27   1     0.04   0.08   0.02    -0.12   0.05  -0.00     0.18   0.16  -0.01
    28   1    -0.04  -0.08   0.02    -0.12   0.05  -0.00     0.18   0.16  -0.00
    29   1     0.00   0.00   0.08    -0.09   0.19  -0.01     0.13  -0.11   0.00
    30   1    -0.08   0.00  -0.00    -0.25  -0.12   0.00    -0.12   0.09  -0.01
    31   1     0.08  -0.00  -0.00    -0.25  -0.12   0.01    -0.12   0.09  -0.00
    32   1     0.00   0.00   0.08     0.04  -0.30   0.01    -0.09   0.06  -0.00
    33   1    -0.08  -0.01  -0.00     0.25  -0.12   0.01     0.12   0.09  -0.00
    34   1     0.08   0.01  -0.00     0.25  -0.12   0.00     0.12   0.09  -0.01
    35   1     0.00   0.00   0.08    -0.04  -0.30   0.01     0.09   0.06  -0.00
    36   1    -0.04   0.08   0.02     0.12   0.06  -0.00    -0.18   0.16  -0.01
    37   1     0.00   0.00   0.08     0.09   0.20  -0.01    -0.13  -0.11   0.01
    38   1     0.04  -0.08   0.02     0.12   0.06  -0.00    -0.18   0.16  -0.00
                     28                     29                     30
                      A                      A                      A
 Frequencies --    534.3791               560.3336               614.6308
 Red. masses --      3.9370                 3.8369                 4.4170
 Frc consts  --      0.6624                 0.7098                 0.9831
 IR Inten    --      1.1463                56.1672                 1.7389
  Atom  AN      X      Y      Z        X      Y      Z        X      Y      Z
     1  16    -0.03  -0.00   0.00    -0.08  -0.00   0.00    -0.00   0.04  -0.00
     2   7    -0.03   0.08  -0.00     0.13   0.06  -0.00    -0.11  -0.06   0.00
     3   7    -0.03  -0.08   0.00     0.13  -0.06   0.00     0.11  -0.06   0.00
     4   7     0.04   0.00  -0.00    -0.10  -0.00   0.00    -0.00   0.12  -0.01
     5   6     0.05   0.11  -0.01    -0.04  -0.07   0.00     0.03   0.02  -0.00
     6   6     0.05  -0.11   0.00    -0.05   0.07  -0.00    -0.03   0.02  -0.00
     7   6    -0.01   0.12  -0.01    -0.06  -0.05   0.00     0.11  -0.02   0.00
     8   6    -0.01  -0.12   0.01    -0.06   0.05  -0.00    -0.11  -0.02   0.00
     9   6     0.06  -0.12   0.01     0.12   0.02  -0.00    -0.08  -0.00   0.00
    10   6     0.06   0.12  -0.01     0.12  -0.02   0.00     0.08   0.00  -0.00
    11   6     0.11  -0.07   0.00     0.00  -0.11   0.01    -0.02   0.08  -0.00
    12   6     0.11   0.07  -0.00    -0.00   0.11  -0.01     0.02   0.08  -0.00
    13   6    -0.08   0.04  -0.00     0.02   0.04  -0.00     0.19  -0.06   0.00
    14   6    -0.08  -0.04   0.00     0.02  -0.04   0.00    -0.19  -0.07   0.00
    15   6     0.01  -0.15   0.01     0.05   0.03  -0.00     0.16  -0.00  -0.00
    16   6     0.01   0.15  -0.01     0.05  -0.03   0.00    -0.16  -0.01   0.00
    17   6     0.03   0.11  -0.01    -0.07   0.12  -0.01     0.02  -0.15   0.01
    18   6    -0.11   0.03  -0.00     0.04  -0.14   0.01    -0.07   0.08  -0.00
    19   6    -0.11  -0.04   0.00     0.04   0.14  -0.01     0.06   0.09  -0.00
    20   6     0.03  -0.11   0.01    -0.06  -0.12   0.01    -0.02  -0.15   0.01
    21   1     0.27  -0.08   0.00    -0.07  -0.11   0.01     0.03   0.07  -0.00
    22   1     0.26   0.09  -0.00    -0.07   0.10  -0.00    -0.03   0.07  -0.00
    23   1    -0.26   0.07  -0.00     0.09   0.03  -0.00     0.24  -0.07   0.00
    24   1    -0.26  -0.07   0.00     0.10  -0.03   0.00    -0.24  -0.08   0.00
    25   1    -0.08  -0.28   0.01    -0.01  -0.04   0.00     0.27   0.14  -0.01
    26   1    -0.08   0.27  -0.01    -0.01   0.04  -0.00    -0.27   0.14  -0.01
    27   1     0.08   0.15  -0.01    -0.16   0.03   0.00     0.08  -0.09   0.00
    28   1     0.08   0.15  -0.00    -0.16   0.03  -0.00     0.08  -0.09   0.00
    29   1     0.06   0.01  -0.00    -0.10   0.31  -0.01     0.04  -0.26   0.01
    30   1    -0.19   0.02  -0.00    -0.11  -0.15   0.01     0.05   0.09  -0.00
    31   1    -0.19   0.02   0.00    -0.11  -0.15   0.01     0.05   0.09  -0.01
    32   1    -0.03  -0.08   0.00     0.17  -0.31   0.01    -0.16   0.21  -0.01
    33   1    -0.19  -0.03  -0.00    -0.11   0.15  -0.01    -0.05   0.09  -0.01
    34   1    -0.19  -0.03   0.01    -0.11   0.15  -0.01    -0.05   0.09  -0.00
    35   1    -0.03   0.08  -0.00     0.16   0.31  -0.01     0.16   0.21  -0.01
    36   1     0.08  -0.15   0.01    -0.16  -0.03   0.00    -0.08  -0.09   0.00
    37   1     0.06  -0.01   0.00    -0.10  -0.31   0.01    -0.03  -0.26   0.01
    38   1     0.08  -0.15   0.00    -0.16  -0.03   0.00    -0.08  -0.09   0.00
                     31                     32                     33
                      A                      A                      A
 Frequencies --    615.4579               640.5441               693.0534
 Red. masses --      3.8008                 2.9481                 6.6096
 Frc consts  --      0.8482                 0.7127                 1.8705
 IR Inten    --      0.0000                 7.3358                74.6338
  Atom  AN      X      Y      Z        X      Y      Z        X      Y      Z
     1  16    -0.00   0.00  -0.00     0.00   0.00   0.02     0.10   0.00  -0.00
     2   7    -0.00  -0.00  -0.08    -0.00  -0.00  -0.06    -0.05  -0.03   0.00
     3   7     0.00   0.00   0.08    -0.00  -0.00  -0.06    -0.05   0.03  -0.00
     4   7    -0.00   0.00   0.00    -0.00  -0.01  -0.14    -0.04  -0.00   0.00
     5   6    -0.00  -0.01  -0.23    -0.00  -0.01  -0.12    -0.11  -0.04   0.00
     6   6     0.00   0.01   0.23    -0.00  -0.01  -0.12    -0.11   0.04  -0.00
     7   6     0.00   0.01   0.13     0.00   0.00   0.10    -0.08   0.08  -0.00
     8   6    -0.00  -0.01  -0.13     0.00   0.00   0.10    -0.07  -0.08   0.00
     9   6     0.00   0.01   0.22     0.00   0.01   0.20     0.01  -0.04   0.00
    10   6    -0.00  -0.01  -0.22     0.00   0.01   0.20     0.01   0.04  -0.00
    11   6     0.00   0.00   0.02    -0.00  -0.00  -0.00    -0.07  -0.20   0.01
    12   6    -0.00  -0.00  -0.02     0.00  -0.00  -0.00    -0.07   0.20  -0.01
    13   6     0.00   0.00   0.01     0.00   0.00   0.08     0.07   0.31  -0.01
    14   6    -0.00  -0.00  -0.01     0.00   0.00   0.08     0.08  -0.31   0.01
    15   6     0.00  -0.00  -0.01    -0.00  -0.00  -0.05     0.17   0.07  -0.00
    16   6    -0.00   0.00   0.01    -0.00  -0.00  -0.05     0.17  -0.06   0.00
    17   6    -0.00  -0.00  -0.00    -0.00  -0.00  -0.00     0.01  -0.13   0.01
    18   6    -0.00  -0.00  -0.01    -0.00  -0.00  -0.00    -0.07   0.06  -0.00
    19   6     0.00   0.00   0.01    -0.00  -0.00  -0.00    -0.07  -0.06   0.00
    20   6    -0.00   0.00   0.00    -0.00  -0.00  -0.00     0.01   0.13  -0.01
    21   1    -0.00  -0.01  -0.13    -0.00  -0.01  -0.30    -0.05  -0.21   0.01
    22   1     0.00   0.01   0.13    -0.00  -0.01  -0.30    -0.05   0.20  -0.01
    23   1    -0.00  -0.02  -0.33    -0.00  -0.01  -0.19     0.08   0.32  -0.02
    24   1     0.00   0.02   0.33    -0.00  -0.01  -0.19     0.08  -0.32   0.01
    25   1    -0.00  -0.02  -0.48    -0.00  -0.02  -0.53     0.09  -0.03   0.00
    26   1     0.00   0.02   0.48    -0.00  -0.02  -0.53     0.09   0.03  -0.00
    27   1     0.01   0.06   0.02     0.00   0.05   0.02     0.05  -0.09   0.01
    28   1    -0.01  -0.06   0.02    -0.00  -0.04   0.02     0.05  -0.09   0.00
    29   1     0.00   0.00   0.03     0.00   0.00   0.01     0.02  -0.20   0.01
    30   1    -0.04   0.04   0.02    -0.03   0.04   0.02    -0.00   0.06  -0.00
    31   1     0.04  -0.04   0.02     0.03  -0.04   0.02    -0.00   0.06  -0.00
    32   1    -0.00   0.00  -0.00    -0.00  -0.00  -0.01    -0.11   0.12  -0.01
    33   1     0.04   0.04  -0.02    -0.03  -0.04   0.02    -0.00  -0.06   0.00
    34   1    -0.04  -0.04  -0.02     0.03   0.04   0.02    -0.00  -0.06   0.00
    35   1     0.00   0.00   0.00    -0.00  -0.00  -0.01    -0.11  -0.12   0.01
    36   1     0.01  -0.06  -0.02    -0.00   0.05   0.02     0.05   0.09  -0.01
    37   1    -0.00  -0.00  -0.03     0.00   0.00   0.01     0.02   0.20  -0.01
    38   1    -0.01   0.05  -0.02     0.00  -0.04   0.02     0.05   0.09  -0.00
                     34                     35                     36
                      A                      A                      A
 Frequencies --    695.8675               736.1749               750.0059
 Red. masses --      6.8270                 3.4683                 5.3804
 Frc consts  --      1.9477                 1.1075                 1.7832
 IR Inten    --      0.0066                 0.0000                 0.0161
  Atom  AN      X      Y      Z        X      Y      Z        X      Y      Z
     1  16     0.00  -0.11   0.01    -0.00  -0.00   0.00     0.00   0.00   0.01
     2   7    -0.04  -0.02   0.00    -0.00  -0.00  -0.03     0.00   0.00   0.04
     3   7     0.04  -0.02   0.00     0.00   0.00   0.03     0.00   0.00   0.04
     4   7     0.00  -0.03   0.00    -0.00  -0.00  -0.00    -0.00  -0.01  -0.18
     5   6    -0.12  -0.00   0.00     0.00   0.01   0.11    -0.00  -0.01  -0.18
     6   6     0.12   0.00  -0.00    -0.00  -0.01  -0.11    -0.00  -0.01  -0.18
     7   6    -0.08   0.12  -0.01    -0.00  -0.01  -0.21     0.00   0.01   0.30
     8   6     0.08   0.12  -0.01     0.00   0.01   0.21     0.00   0.01   0.30
     9   6     0.03  -0.06   0.00     0.00   0.01   0.18    -0.00  -0.01  -0.20
    10   6    -0.03  -0.06   0.00    -0.00  -0.01  -0.18    -0.00  -0.01  -0.20
    11   6    -0.06  -0.20   0.01    -0.00  -0.00  -0.04     0.00   0.00   0.07
    12   6     0.07  -0.20   0.01     0.00   0.00   0.04     0.00   0.00   0.07
    13   6     0.03   0.35  -0.02     0.00   0.00   0.10    -0.00  -0.00  -0.07
    14   6    -0.04   0.35  -0.02    -0.00  -0.00  -0.10    -0.00  -0.00  -0.07
    15   6     0.15   0.03  -0.00    -0.00  -0.00  -0.10     0.00   0.00   0.10
    16   6    -0.15   0.03  -0.00     0.00   0.00   0.10     0.00   0.00   0.10
    17   6     0.01  -0.10   0.00    -0.00  -0.00  -0.00     0.00   0.00   0.00
    18   6    -0.05   0.05  -0.00    -0.00  -0.00  -0.00     0.00   0.00   0.00
    19   6     0.05   0.05  -0.00     0.00   0.00   0.00     0.00   0.00   0.00
    20   6    -0.01  -0.10   0.00     0.00   0.00   0.00     0.00   0.00   0.00
    21   1    -0.01  -0.20   0.01    -0.00  -0.02  -0.50     0.00   0.02   0.45
    22   1     0.02  -0.20   0.01     0.00   0.02   0.50     0.00   0.02   0.45
    23   1    -0.04   0.36  -0.02     0.00   0.01   0.25    -0.00  -0.01  -0.28
    24   1     0.04   0.36  -0.02    -0.00  -0.01  -0.25    -0.00  -0.01  -0.28
    25   1     0.03  -0.12   0.01    -0.00  -0.01  -0.25     0.00   0.01   0.14
    26   1    -0.03  -0.12   0.01     0.00   0.01   0.25     0.00   0.01   0.14
    27   1     0.04  -0.06   0.00    -0.01   0.03   0.01     0.00  -0.04  -0.02
    28   1     0.04  -0.06   0.00     0.01  -0.03   0.02    -0.00   0.04  -0.02
    29   1     0.02  -0.16   0.01    -0.00  -0.00  -0.01     0.00   0.00   0.01
    30   1    -0.01   0.05  -0.00    -0.02   0.02   0.01     0.03  -0.02  -0.01
    31   1    -0.01   0.05  -0.00     0.03  -0.02   0.02    -0.03   0.02  -0.01
    32   1    -0.08   0.09  -0.00     0.00   0.00   0.00    -0.00  -0.00  -0.01
    33   1     0.01   0.05  -0.00     0.02   0.02  -0.02     0.03   0.02  -0.01
    34   1     0.01   0.05  -0.00    -0.02  -0.02  -0.01    -0.03  -0.02  -0.01
[...]
    28284.3022    0.384743D+00
    28287.3022    0.384203D+00
    28290.3022    0.383704D+00
    28293.3022    0.383174D+00
    28296.3022    0.382742D+00
    28299.3022    0.382333D+00
    28302.3022    0.381942D+00
    28305.3022    0.381573D+00
    28308.3022    0.381219D+00
    28311.3022    0.380875D+00
    28314.3022    0.380539D+00
    28317.3022    0.380207D+00
    28320.3022    0.379876D+00
    28323.3022    0.379541D+00
    28326.3022    0.379197D+00
    28329.3022    0.378844D+00
    28332.3022    0.378477D+00
    28335.3022    0.378092D+00
    28338.3022    0.377684D+00
    28341.3022    0.377250D+00
    28344.3022    0.376786D+00
    28347.3022    0.376290D+00
    28350.3022    0.375755D+00
    28353.3022    0.375180D+00
    28356.3022    0.374562D+00
    28359.3022    0.373899D+00
    28362.3022    0.373183D+00
    28365.3022    0.372413D+00
    28368.3022    0.371587D+00
    28371.3022    0.370697D+00
    28374.3022    0.369746D+00
    28377.3022    0.368734D+00
    28380.3022    0.367645D+00
    28383.3022    0.366500D+00
    28386.3022    0.365283D+00
    28389.3022    0.363994D+00
    28392.3022    0.362627D+00
    28395.3022    0.361187D+00
    28398.3022    0.359672D+00
    28401.3022    0.358068D+00
    28404.3022    0.356399D+00
    28407.3022    0.354654D+00
    28410.3022    0.352830D+00
    28413.3022    0.350929D+00
    28416.3022    0.348951D+00
    28419.3022    0.346897D+00
    28422.3022    0.344768D+00
    28425.3022    0.342566D+00
    28428.3022    0.340291D+00
    28431.3022    0.337947D+00
    28434.3022    0.335533D+00
    28437.3022    0.333053D+00
    28440.3022    0.330510D+00
    28443.3022    0.327907D+00
    28446.3022    0.325245D+00
    28449.3022    0.322528D+00
    28452.3022    0.319759D+00
    28455.3022    0.316941D+00
    28458.3022    0.314079D+00
    28461.3022    0.311175D+00
    28464.3022    0.308232D+00
    28467.3022    0.305257D+00
    28470.3022    0.302251D+00
    28473.3022    0.299218D+00
    28476.3022    0.296165D+00
    28479.3022    0.293094D+00
    28482.3022    0.290006D+00
    28485.3022    0.286900D+00
    28488.3022    0.283798D+00
    28491.3022    0.280695D+00
    28494.3022    0.277595D+00
    28497.3022    0.274500D+00
    28500.3022    0.271414D+00
    28503.3022    0.268342D+00
    28506.3022    0.265287D+00
    28509.3022    0.262243D+00
    28512.3022    0.259232D+00
    28515.3022    0.256245D+00
    28518.3022    0.253294D+00
    28521.3022    0.250376D+00
    28524.3022    0.247493D+00
    28527.3022    0.244649D+00
    28530.3022    0.241844D+00
    28533.3022    0.239084D+00
    28536.3022    0.236367D+00
    28539.3022    0.233700D+00
    28542.3022    0.231082D+00
    28545.3022    0.228515D+00
    28548.3022    0.225999D+00
    28551.3022    0.223536D+00
    28554.3022    0.221128D+00
    28557.3022    0.218775D+00
    28560.3022    0.216478D+00
    28563.3022    0.214236D+00
    28566.3022    0.212050D+00
    28569.3022    0.209921D+00
    28572.3022    0.207848D+00
    28575.3022    0.205831D+00
    28578.3022    0.203869D+00
    28581.3022    0.201962D+00
    28584.3022    0.200110D+00
    28587.3022    0.198309D+00
    28590.3022    0.196562D+00
    28593.3022    0.194866D+00
    28596.3022    0.193223D+00
    28599.3022    0.191628D+00
    28602.3022    0.190082D+00
    28605.3022    0.188582D+00
    28608.3022    0.187126D+00
    28611.3022    0.185709D+00
    28614.3022    0.184341D+00
    28617.3022    0.183010D+00
    28620.3022    0.181720D+00
    28623.3022    0.180467D+00
    28626.3022    0.179244D+00
    28629.3022    0.178060D+00
    28632.3022    0.176904D+00
    28635.3022    0.175781D+00
    28638.3022    0.174686D+00
    28641.3022    0.173619D+00
    28644.3022    0.172575D+00
    28647.3022    0.171554D+00
    28650.3022    0.170550D+00
    28653.3022    0.169571D+00
    28656.3022    0.168609D+00
    28659.3022    0.167664D+00
    28662.3022    0.166735D+00
    28665.3022    0.165818D+00
    28668.3022    0.164911D+00
    28671.3022    0.164019D+00
    28674.3022    0.163135D+00
    28677.3022    0.162260D+00
    28680.3022    0.161392D+00
    28683.3022    0.160531D+00
    28686.3022    0.159675D+00
    28689.3022    0.158821D+00
    28692.3022    0.157972D+00
    28695.3022    0.157126D+00
    28698.3022    0.156279D+00
    28701.3022    0.155437D+00
    28704.3022    0.154595D+00
    28707.3022    0.153754D+00
    28710.3022    0.152912D+00
    28713.3022    0.152069D+00
    28716.3022    0.151225D+00
    28719.3022    0.150379D+00
    28722.3022    0.149531D+00
    28725.3022    0.148675D+00
    28728.3022    0.147825D+00
    28731.3022    0.146974D+00
    28734.3022    0.146122D+00
    28737.3022    0.145268D+00
    28740.3022    0.144412D+00
    28743.3022    0.143554D+00
    28746.3022    0.142687D+00
    28749.3022    0.141826D+00
    28752.3022    0.140964D+00
    28755.3022    0.140102D+00
    28758.3022    0.139238D+00
    28761.3022    0.138374D+00
    28764.3022    0.137509D+00
    28767.3022    0.136645D+00
    28770.3022    0.135779D+00
    28773.3022    0.134914D+00
    28776.3022    0.134050D+00
    28779.3022    0.133180D+00
    28782.3022    0.132318D+00
    28785.3022    0.131458D+00
    28788.3022    0.130598D+00
    28791.3022    0.129738D+00
    28794.3022    0.128882D+00
    28797.3022    0.128026D+00
    28800.3022    0.127172D+00
    28803.3022    0.126315D+00
    28806.3022    0.125464D+00
    28809.3022    0.124617D+00
    28812.3022    0.123771D+00
    28815.3022    0.122927D+00
    28818.3022    0.122084D+00
    28821.3022    0.121243D+00
    28824.3022    0.120404D+00
    28827.3022    0.119565D+00
    28830.3022    0.118729D+00
    28833.3022    0.117893D+00
    28836.3022    0.117060D+00
    28839.3022    0.116228D+00
    28842.3022    0.115395D+00
    28845.3022    0.114565D+00
    28848.3022    0.113735D+00
    28851.3022    0.112907D+00
    28854.3022    0.112077D+00
    28857.3022    0.111250D+00
    28860.3022    0.110423D+00
    28863.3022    0.109593D+00
    28866.3022    0.108766D+00
    28869.3022    0.107939D+00
    28872.3022    0.107111D+00
    28875.3022    0.106283D+00
    28878.3022    0.105455D+00
    28881.3022    0.104625D+00
    28884.3022    0.103797D+00
    28887.3022    0.102966D+00
    28890.3022    0.102137D+00
    28893.3022    0.101307D+00
    28896.3022    0.100478D+00
    28899.3022    0.996486D-01
    28902.3022    0.988189D-01
    28905.3022    0.979895D-01
    28908.3022    0.971608D-01
    28911.3022    0.963321D-01
    28914.3022    0.955045D-01
    28917.3022    0.946798D-01
    28920.3022    0.938563D-01
    28923.3022    0.930346D-01
    28926.3022    0.922153D-01
    28929.3022    0.913987D-01
    28932.3022    0.905852D-01
    28935.3022    0.897749D-01
    28938.3022    0.889680D-01
    28941.3022    0.881670D-01
    28944.3022    0.873698D-01
    28947.3022    0.865791D-01
    28950.3022    0.857957D-01
    28953.3022    0.850201D-01
    28956.3022    0.842504D-01
    28959.3022    0.834886D-01
    28962.3022    0.827339D-01
    28965.3022    0.819890D-01
    28968.3022    0.812538D-01
    28971.3022    0.805298D-01
    28974.3022    0.798163D-01
    28977.3022    0.791155D-01
    28980.3022    0.784253D-01
    28983.3022    0.777463D-01
    28986.3022    0.770818D-01
    28989.3022    0.764307D-01
    28992.3022    0.757938D-01
    28995.3022    0.751707D-01
    28998.3022    0.745636D-01
    29001.3022    0.739721D-01
    29004.3022    0.733961D-01
    29007.3022    0.728370D-01
    29010.3022    0.722946D-01
    29013.3022    0.717694D-01
    29016.3022    0.712605D-01
    29019.3022    0.707704D-01
    29022.3022    0.702982D-01
    29025.3022    0.698445D-01
    29028.3022    0.694090D-01
    29031.3022    0.689932D-01
    29034.3022    0.685951D-01
    29037.3022    0.682158D-01
    29040.3022    0.678547D-01
    29043.3022    0.675134D-01
    29046.3022    0.671909D-01
    29049.3022    0.668875D-01
    29052.3022    0.666030D-01
    29055.3022    0.663364D-01
    29058.3022    0.660869D-01
    29061.3022    0.658583D-01
    29064.3022    0.656483D-01
    29067.3022    0.654564D-01
    29070.3022    0.652822D-01
    29073.3022    0.651255D-01
    29076.3022    0.649861D-01
    29079.3022    0.648626D-01
    29082.3022    0.647549D-01
    29085.3022    0.646650D-01
    29088.3022    0.645910D-01
    29091.3022    0.645327D-01
    29094.3022    0.644892D-01
    29097.3022    0.644600D-01
    29100.3022    0.644448D-01
    29103.3022    0.644433D-01
    29106.3022    0.644548D-01
    29109.3022    0.644792D-01
    29112.3022    0.645157D-01
    29115.3022    0.645640D-01
    29118.3022    0.646232D-01
    29121.3022    0.646927D-01
    29124.3022    0.647730D-01
    29127.3022    0.648624D-01
    29130.3022    0.649615D-01
    29133.3022    0.650692D-01
    29136.3022    0.651855D-01
    29139.3022    0.653093D-01
    29142.3022    0.654397D-01
    29145.3022    0.655768D-01
    29148.3022    0.657200D-01
    29151.3022    0.658687D-01
    29154.3022    0.660234D-01
    29157.3022    0.661833D-01
    29160.3022    0.663474D-01
    29163.3022    0.665158D-01
    29166.3022    0.666872D-01
    29169.3022    0.668625D-01
    29172.3022    0.670401D-01
    29175.3022    0.672195D-01
    29178.3022    0.674011D-01
    29181.3022    0.675852D-01
    29184.3022    0.677707D-01
    29187.3022    0.679571D-01
    29190.3022    0.681440D-01
    29193.3022    0.683311D-01
    29196.3022    0.685175D-01
    29199.3022    0.687039D-01
    29202.3022    0.688894D-01
    29205.3022    0.690742D-01
    29208.3022    0.692572D-01
    29211.3022    0.694387D-01
    29214.3022    0.696182D-01
    29217.3022    0.697951D-01
    29220.3022    0.699686D-01
    29223.3022    0.701398D-01
    29226.3022    0.703073D-01
    29229.3022    0.704711D-01
    29232.3022    0.706304D-01
    29235.3022    0.707853D-01
    29238.3022    0.709357D-01
    29241.3022    0.710809D-01
    29244.3022    0.712206D-01
    29247.3022    0.713552D-01
    29250.3022    0.714826D-01
    29253.3022    0.716032D-01
    29256.3022    0.717164D-01
    29259.3022    0.718221D-01
    29262.3022    0.719207D-01
    29265.3022    0.720112D-01
    29268.3022    0.720928D-01
    29271.3022    0.721661D-01
    29274.3022    0.722298D-01
    29277.3022    0.722837D-01
    29280.3022    0.723272D-01
    29283.3022    0.723608D-01
    29286.3022    0.723836D-01
    29289.3022    0.723949D-01
    29292.3022    0.723950D-01
    29295.3022    0.723835D-01
    29298.3022    0.723600D-01
    29301.3022    0.723244D-01
    29304.3022    0.722763D-01
    29307.3022    0.722155D-01
    29310.3022    0.721416D-01
    29313.3022    0.720541D-01
    29316.3022    0.719539D-01
    29319.3022    0.718401D-01
    29322.3022    0.717129D-01
    29325.3022    0.715722D-01
    29328.3022    0.714178D-01
    29331.3022    0.712498D-01
    29334.3022    0.710682D-01
    29337.3022    0.708730D-01
    29340.3022    0.706644D-01
    29343.3022    0.704426D-01
    29346.3022    0.702077D-01
    29349.3022    0.699602D-01
    29352.3022    0.696998D-01
    29355.3022    0.694269D-01
    29358.3022    0.691419D-01
    29361.3022    0.688449D-01
    29364.3022    0.685367D-01
    29367.3022    0.682173D-01
    29370.3022    0.678878D-01
    29373.3022    0.675477D-01
    29376.3022    0.671979D-01
    29379.3022    0.668393D-01
    29382.3022    0.664718D-01
    29385.3022    0.660960D-01
    29388.3022    0.657123D-01
    29391.3022    0.653215D-01
    29394.3022    0.649243D-01
    29397.3022    0.645209D-01
    29400.3022    0.641121D-01
    29403.3022    0.636985D-01
    29406.3022    0.632808D-01
    29409.3022    0.628590D-01
    29412.3022    0.624335D-01
    29415.3022    0.620057D-01
    29418.3022    0.615757D-01
    29421.3022    0.611440D-01
    29424.3022    0.607113D-01
    29427.3022    0.602780D-01
    29430.3022    0.598446D-01
    29433.3022    0.594111D-01
    29436.3022    0.589787D-01
    29439.3022    0.585475D-01
    29442.3022    0.581178D-01
    29445.3022    0.576900D-01
    29448.3022    0.572646D-01
    29451.3022    0.568419D-01
    29454.3022    0.564220D-01
    29457.3022    0.560054D-01
    29460.3022    0.555923D-01
    29463.3022    0.551832D-01
    29466.3022    0.547777D-01
    29469.3022    0.543759D-01
    29472.3022    0.539788D-01
    29475.3022    0.535859D-01
    29478.3022    0.531976D-01
    29481.3022    0.528138D-01
    29484.3022    0.524349D-01
    29487.3022    0.520600D-01
    29490.3022    0.516902D-01
    29493.3022    0.513245D-01
    29496.3022    0.509637D-01
    29499.3022    0.506075D-01
    29502.3022    0.502556D-01
    29505.3022    0.499078D-01
    29508.3022    0.495644D-01
    29511.3022    0.492245D-01
    29514.3022    0.488889D-01
    29517.3022    0.485571D-01
    29520.3022    0.482288D-01
    29523.3022    0.479037D-01
    29526.3022    0.475817D-01
    29529.3022    0.472625D-01
    29532.3022    0.469459D-01
    29535.3022    0.466315D-01
    29538.3022    0.463194D-01
    29541.3022    0.460085D-01
    29544.3022    0.457000D-01
    29547.3022    0.453927D-01
    29550.3022    0.450865D-01
    29553.3022    0.447809D-01
    29556.3022    0.444760D-01
    29559.3022    0.441711D-01
    29562.3022    0.438664D-01
    29565.3022    0.435618D-01
    29568.3022    0.432564D-01
    29571.3022    0.429505D-01
    29574.3022    0.426436D-01
    29577.3022    0.423355D-01
    29580.3022    0.420262D-01
    29583.3022    0.417154D-01
    29586.3022    0.414027D-01
    29589.3022    0.410884D-01
    29592.3022    0.407722D-01
    29595.3022    0.404531D-01
    29598.3022    0.401329D-01
    29601.3022    0.398103D-01
    29604.3022    0.394854D-01
    29607.3022    0.391583D-01
    29610.3022    0.388287D-01
    29613.3022    0.384971D-01
    29616.3022    0.381626D-01
    29619.3022    0.378264D-01
    29622.3022    0.374881D-01
    29625.3022    0.371476D-01
    29628.3022    0.368053D-01
    29631.3022    0.364612D-01
    29634.3022    0.361156D-01
    29637.3022    0.357685D-01
    29640.3022    0.354201D-01
    29643.3022    0.350705D-01
    29646.3022    0.347202D-01
    29649.3022    0.343690D-01
    29652.3022    0.340163D-01
    29655.3022    0.336650D-01
    29658.3022    0.333139D-01
    29661.3022    0.329630D-01
    29664.3022    0.326128D-01
    29667.3022    0.322636D-01
    29670.3022    0.319155D-01
    29673.3022    0.315689D-01
    29676.3022    0.312229D-01
    29679.3022    0.308802D-01
    29682.3022    0.305396D-01
    29685.3022    0.302015D-01
    29688.3022    0.298662D-01
    29691.3022    0.295338D-01
 -----------------------------


 ----------------------------------------------------------------------

 Electric dipole moment (input orientation):
 (Debye = 10**-18 statcoulomb cm , SI units = C m)
                  (au)            (Debye)         (10**-30 SI)
   Tot        0.744328D+00      0.189189D+01      0.631067D+01
   x          0.657839D-02      0.167206D-01      0.557739D-01
   y         -0.743476D+00     -0.188973D+01     -0.630345D+01
   z          0.349775D-01      0.889039D-01      0.296551D+00

 Dipole polarizability, Alpha (input orientation).
 (esu units = cm**3 , SI units = C**2 m**2 J**-1)
 Alpha(0;0):
               (au)            (10**-24 esu)      (10**-40 SI)
   iso        0.315014D+03      0.466803D+02      0.519389D+02
   aniso      0.465983D+03      0.690515D+02      0.768302D+02
   xx         0.621467D+03      0.920918D+02      0.102466D+03
   yx         0.362642D+01      0.537380D+00      0.597916D+00
   yy         0.205508D+03      0.304531D+02      0.338836D+02
   zx        -0.197241D+01     -0.292280D+00     -0.325206D+00
   zy        -0.409926D+01     -0.607448D+00     -0.675877D+00
   zz         0.118069D+03      0.174960D+02      0.194669D+02

 ----------------------------------------------------------------------

 Dipole oientation:
    16          0.01124609         -0.03397006          2.81996102
     7         -9.47252688         -0.07836839          1.27830945
     7          9.49469031          0.01391064          1.27647626
     7          0.01064428         -0.03071834         -3.07659881
     6         -2.56684421         -0.04507249          0.78608342
     6          2.58891844         -0.01998892          0.78558694
     6         -2.20700267         -0.04205395         -1.89901482
     6          2.22853199         -0.02045629         -1.89943410
     6         -7.13597349         -0.06678781          0.27423767
     6          7.15793788          0.00275074          0.27284775
     6         -4.95651327         -0.05705972          1.82979464
     6          4.97879285         -0.00873574          1.82883590
     6         -4.42818019         -0.05211042         -3.43336216
     6          4.44938470         -0.00890932         -3.43422319
     6         -6.78474794         -0.06396834         -2.41862753
     6          6.80615339          0.00213813         -2.41994670
     6         -9.81608952         -0.08114777          4.01398485
     6        -11.70925509         -0.08767281         -0.34206900
     6         11.73109192          0.02628399         -0.34432331
     6          9.83876744          0.01422019          4.01208622
     1         -5.14928937         -0.05906340          3.86608327
     1          5.17198557         -0.00885154          3.86508506
     1         -4.14916688         -0.04986026         -5.46417487
     1          4.16996441         -0.00938069         -5.46498078
     1         -8.40708128         -0.07147993         -3.66120322
     1          8.42822930          0.01037786         -3.66284922
     1         -8.98411449          1.60839801          4.87217836
     1         -8.96787266         -1.76334947          4.87068221
     1        -11.82757122         -0.09107022          4.44011737
     1        -11.76058133         -1.77346747         -1.53932787
     1        -11.77534727          1.59831209         -1.53831493
     1        -13.38928036         -0.09540134          0.84341319
     1         11.78036435          1.71260088         -1.54090383
     1         11.79878707         -1.65916299         -1.54126400
     1         13.41133825          0.03534195          0.84083834
     1          8.99054853          1.69552508          4.87056293
     1         11.85032391          0.02380896          4.43789413
     1          9.00708402         -1.67621337          4.86879052

 Electric dipole moment (dipole orientation):
 (Debye = 10**-18 statcoulomb cm , SI units = C m)
                  (au)            (Debye)         (10**-30 SI)
   Tot        0.744328D+00      0.189189D+01      0.631067D+01
   x          0.000000D+00      0.000000D+00      0.000000D+00
   y          0.000000D+00      0.000000D+00      0.000000D+00
   z          0.744328D+00      0.189189D+01      0.631067D+01

 Dipole polarizability, Alpha (dipole orientation).
 (esu units = cm**3 , SI units = C**2 m**2 J**-1)
 Alpha(0;0):
               (au)            (10**-24 esu)      (10**-40 SI)
   iso        0.315014D+03      0.466803D+02      0.519389D+02
   aniso      0.465983D+03      0.690515D+02      0.768302D+02
   xx         0.621494D+03      0.920959D+02      0.102471D+03
   yx         0.244714D+01      0.362628D+00      0.403478D+00
   yy         0.117883D+03      0.174684D+02      0.194362D+02
   zx        -0.397688D-01     -0.589313D-02     -0.655699D-02
   zy        -0.396400D-01     -0.587405D-02     -0.653576D-02
   zz         0.205666D+03      0.304766D+02      0.339098D+02

 ----------------------------------------------------------------------

 This type of calculation cannot be archived.


 HE THAT RISETH LATE MUST TROT ALL DAY.

                  -- BENJAMIN FRANKLIN
 Job cpu time:       0 days  0 hours 10 minutes 16.2 seconds.
 Elapsed time:       0 days  0 hours  0 minutes 38.6 seconds.
 File lengths (MBytes):  RWF=      6 Int=      0 D2E=      0 Chk=     17 Scr=      1
 Normal termination of Gaussian DV at Thu Feb 21 20:56:19 2019.
