************************************************************
This is node22.cluster of cluster Pinconning.
Date: Mon Nov  6 21:13:36 PST 2017
************************************************************
 Set GAUSS_MDEF to "32GB".
 Set GAUSS_PDEF to "16".
 Entering Gaussian System, Link 0=gdv
 Initial command:
 /opt/gaussian/gdv-20170407-i10+/gdv/l1.exe "/tmp/635094.1.16core.q/Gau-26679.inp" -scrdir="/tmp/635094.1.16core.q/"
 Default is to use a total of  16 processors:
                               16 via shared-memory
                                1 via Linda
 Entering Link 1 = /opt/gaussian/gdv-20170407-i10+/gdv/l1.exe PID=     26680.
  
 Copyright (c) 1988-2017, Gaussian, Inc.  All Rights Reserved.
  
 This is the private, development version of
 the Gaussian(R) DV system of programs. It is based on
 the Gaussian(R) 16 system (copyright 2016, Gaussian, Inc.),
 the Gaussian(R) 09 system (copyright 2009, Gaussian, Inc.),
 the Gaussian(R) 03 system (copyright 2003, Gaussian, Inc.),
 the Gaussian(R) 98 system (copyright 1998, Gaussian, Inc.),
 the Gaussian(R) 94 system (copyright 1995, Gaussian, Inc.),
 the Gaussian 92(TM) system (copyright 1992, Gaussian, Inc.),
 the Gaussian 90(TM) system (copyright 1990, Gaussian, Inc.),
 the Gaussian 88(TM) system (copyright 1988, Gaussian, Inc.),
 the Gaussian 86(TM) system (copyright 1986, Carnegie Mellon
 University), and the Gaussian 82(TM) system (copyright 1983,
 Carnegie Mellon University). Gaussian is a federally registered
 trademark of Gaussian, Inc.
  
 This software contains proprietary and confidential information,
 including trade secrets, belonging to Gaussian, Inc.
  
 This software is provided under written license and may be
 used, copied, transmitted, or stored only in accord with that
 written license.
  
 The following legend is applicable only to US Government
 contracts under FAR:
  
                    RESTRICTED RIGHTS LEGEND
  
 Use, reproduction and disclosure by the US Government is
 subject to restrictions as set forth in subparagraphs (a)
 and (c) of the Commercial Computer Software - Restricted
 Rights clause in FAR 52.227-19.
  
 Gaussian, Inc.
 340 Quinnipiac St., Bldg. 40, Wallingford CT 06492
  
  
 ---------------------------------------------------------------
 Warning -- This program may not be used in any manner that
 competes with the business of Gaussian, Inc. or will provide
 assistance to any competitor of Gaussian, Inc.  The licensee
 of this program is prohibited from giving any competitor of
 Gaussian, Inc. access to this program.  By using this program,
 the user acknowledges that Gaussian, Inc. is engaged in the
 business of creating and licensing software in the field of
 computational chemistry and represents and warrants to the
 licensee that it is not a competitor of Gaussian, Inc. and that
 it will not use this program in any manner prohibited above.
 ---------------------------------------------------------------
  

 Cite this work as:
 Gaussian Development Version, Revision I.10+,
 M. J. Frisch, G. W. Trucks, H. B. Schlegel, G. E. Scuseria, 
 M. A. Robb, J. R. Cheeseman, G. Scalmani, V. Barone, 
 G. A. Petersson, H. Nakatsuji, X. Li, M. Caricato, A. V. Marenich, 
 J. Bloino, B. G. Janesko, R. Gomperts, B. Mennucci, H. P. Hratchian, 
 J. V. Ortiz, A. F. Izmaylov, J. L. Sonnenberg, D. Williams-Young, 
 F. Ding, F. Lipparini, F. Egidi, J. Goings, B. Peng, A. Petrone, 
 T. Henderson, D. Ranasinghe, V. G. Zakrzewski, J. Gao, N. Rega, 
 G. Zheng, W. Liang, M. Hada, M. Ehara, K. Toyota, R. Fukuda, 
 J. Hasegawa, M. Ishida, T. Nakajima, Y. Honda, O. Kitao, H. Nakai, 
 T. Vreven, K. Throssell, J. A. Montgomery, Jr., J. E. Peralta, 
 F. Ogliaro, M. J. Bearpark, J. J. Heyd, E. N. Brothers, K. N. Kudin, 
 V. N. Staroverov, T. A. Keith, R. Kobayashi, J. Normand, 
 K. Raghavachari, A. P. Rendell, J. C. Burant, S. S. Iyengar, 
 J. Tomasi, M. Cossi, J. M. Millam, M. Klene, C. Adamo, R. Cammi, 
 J. W. Ochterski, R. L. Martin, K. Morokuma, O. Farkas, 
 J. B. Foresman, and D. J. Fox, Gaussian, Inc., Wallingford CT, 2016.
 
 *******************************************
 Gaussian DV:  ES64L-GDVRevI.10+ 27-Mar-2017
                  6-Nov-2017 
 *******************************************
 %chk=phenolate_camb3lyp_tddft
 -------------------------------------------------------------
 # CAM-B3LYP/6-31+G* TDA(Root=1) Geom=AllCheck opt freq=saveNM
 -------------------------------------------------------------
 1/18=20,19=15,26=3,29=7,38=1/1,3;
 2/9=110,12=2,40=1/2;
 3/5=1,6=6,7=11,11=9,14=-4,25=1,30=1,71=1,74=-40/1,2,3,8;
 4//1;
 5/5=2,38=5/2;
 8/6=1,10=2,107=1/1;
 9/8=1,15=2,42=1/14;
 10/5=4,28=1/2;
 6/7=2,8=2,9=2,10=2/1;
 7/12=6,13=5,14=1,92=1/1,2,3,16;
 1/18=20,19=15,26=3/3(2);
 2/9=110/2;
 99//99;
 2/9=110/2;
 3/5=1,6=6,7=11,11=9,14=-2,25=1,30=1,71=1,74=-40/1,2,3,8;
 4/5=5,16=3,69=1/1;
 5/5=2,38=5/2;
 8/6=1,10=2,107=1/1;
 9/8=1,15=2,42=1,49=4/14;
 10/5=4,28=1/2;
 7/12=6,13=5,14=1,92=1/1,2,3,16;
 1/18=20,19=15,26=3/3(-8);
 2/9=110/2;
 6/7=2,8=2,9=2,10=2/1;
 99/9=10/99;
 Structure from the checkpoint file:  "phenolate_camb3lyp_tddft.chk"
 --------------------------
 pCT- Geometry Optimization
 --------------------------
 Charge = -1 Multiplicity = 1
 Redundant internal coordinates found in file.  (old form).
 C,0,34.3270126599,30.5985458529,30.381780136
 C,0,34.0332182431,29.4718242382,29.5322204946
 C,0,32.7480449878,28.9811360446,29.3635657014
 C,0,31.6482066823,29.5556496441,30.0143934904
 C,0,31.8931368302,30.6535305697,30.8498889196
 C,0,33.1701203448,31.1601686157,31.0327835566
 O,0,35.5015766494,31.0561385451,30.5426039237
 H,0,30.642837721,29.1647246381,29.8759791816
 H,0,34.8745230971,29.0113618869,29.0170316804
 H,0,32.591683794,28.1246369076,28.7053791515
 H,0,31.0581570438,31.1243464577,31.3716667623
 H,0,33.3394819466,32.0139365993,31.6867070019
 Recover connectivity data from disk.

 GradGradGradGradGradGradGradGradGradGradGradGradGradGradGradGradGradGrad
 Berny optimization.
 Initialization pass.
                           ----------------------------
                           !    Initial Parameters    !
                           ! (Angstroms and Degrees)  !
 --------------------------                            --------------------------
 ! Name  Definition              Value          Derivative Info.                !
 --------------------------------------------------------------------------------
 ! R1    R(1,2)                  1.4414         estimate D2E/DX2                !
 ! R2    R(1,6)                  1.4414         estimate D2E/DX2                !
 ! R3    R(1,7)                  1.2708         estimate D2E/DX2                !
 ! R4    R(2,3)                  1.386          estimate D2E/DX2                !
 ! R5    R(2,9)                  1.0887         estimate D2E/DX2                !
 ! R6    R(3,4)                  1.4012         estimate D2E/DX2                !
 ! R7    R(3,10)                 1.0914         estimate D2E/DX2                !
 ! R8    R(4,5)                  1.4012         estimate D2E/DX2                !
 ! R9    R(4,8)                  1.0875         estimate D2E/DX2                !
 ! R10   R(5,6)                  1.3859         estimate D2E/DX2                !
 ! R11   R(5,11)                 1.0914         estimate D2E/DX2                !
 ! R12   R(6,12)                 1.0887         estimate D2E/DX2                !
 ! A1    A(2,1,6)              114.0282         estimate D2E/DX2                !
 ! A2    A(2,1,7)              122.9887         estimate D2E/DX2                !
 ! A3    A(6,1,7)              122.9831         estimate D2E/DX2                !
 ! A4    A(1,2,3)              122.5125         estimate D2E/DX2                !
 ! A5    A(1,2,9)              116.8739         estimate D2E/DX2                !
 ! A6    A(3,2,9)              120.6136         estimate D2E/DX2                !
 ! A7    A(2,3,4)              121.7471         estimate D2E/DX2                !
 ! A8    A(2,3,10)             118.9507         estimate D2E/DX2                !
 ! A9    A(4,3,10)             119.3022         estimate D2E/DX2                !
 ! A10   A(3,4,5)              117.4526         estimate D2E/DX2                !
 ! A11   A(3,4,8)              121.2739         estimate D2E/DX2                !
 ! A12   A(5,4,8)              121.2735         estimate D2E/DX2                !
 ! A13   A(4,5,6)              121.7468         estimate D2E/DX2                !
 ! A14   A(4,5,11)             119.2975         estimate D2E/DX2                !
 ! A15   A(6,5,11)             118.9557         estimate D2E/DX2                !
 ! A16   A(1,6,5)              122.5127         estimate D2E/DX2                !
 ! A17   A(1,6,12)             116.8714         estimate D2E/DX2                !
 ! A18   A(5,6,12)             120.6159         estimate D2E/DX2                !
 ! D1    D(6,1,2,3)              0.0265         estimate D2E/DX2                !
 ! D2    D(6,1,2,9)            179.9926         estimate D2E/DX2                !
 ! D3    D(7,1,2,3)           -179.9743         estimate D2E/DX2                !
 ! D4    D(7,1,2,9)             -0.0081         estimate D2E/DX2                !
 ! D5    D(2,1,6,5)             -0.0286         estimate D2E/DX2                !
 ! D6    D(2,1,6,12)           179.96           estimate D2E/DX2                !
 ! D7    D(7,1,6,5)            179.9721         estimate D2E/DX2                !
 ! D8    D(7,1,6,12)            -0.0393         estimate D2E/DX2                !
 ! D9    D(1,2,3,4)             -0.0086         estimate D2E/DX2                !
 ! D10   D(1,2,3,10)           179.9663         estimate D2E/DX2                !
 ! D11   D(9,2,3,4)           -179.9736         estimate D2E/DX2                !
 ! D12   D(9,2,3,10)             0.0013         estimate D2E/DX2                !
 ! D13   D(2,3,4,5)             -0.0091         estimate D2E/DX2                !
 ! D14   D(2,3,4,8)            179.9606         estimate D2E/DX2                !
 ! D15   D(10,3,4,5)          -179.9839         estimate D2E/DX2                !
 ! D16   D(10,3,4,8)            -0.0143         estimate D2E/DX2                !
 ! D17   D(3,4,5,6)              0.0069         estimate D2E/DX2                !
 ! D18   D(3,4,5,11)           179.9983         estimate D2E/DX2                !
 ! D19   D(8,4,5,6)           -179.9627         estimate D2E/DX2                !
 ! D20   D(8,4,5,11)             0.0286         estimate D2E/DX2                !
 ! D21   D(4,5,6,1)              0.0131         estimate D2E/DX2                !
 ! D22   D(4,5,6,12)          -179.9752         estimate D2E/DX2                !
 ! D23   D(11,5,6,1)          -179.9783         estimate D2E/DX2                !
 ! D24   D(11,5,6,12)            0.0335         estimate D2E/DX2                !
 --------------------------------------------------------------------------------
 Trust Radius=3.00D-01 FncErr=1.00D-07 GrdErr=1.00D-06 EigMax=2.50D+02 EigMin=1.00D-04
 Number of steps in this run=     64 maximum allowed number of steps=    100.
 GradGradGradGradGradGradGradGradGradGradGradGradGradGradGradGradGradGrad

                          Input orientation:                          
 ---------------------------------------------------------------------
 Center     Atomic      Atomic             Coordinates (Angstroms)
 Number     Number       Type             X           Y           Z
 ---------------------------------------------------------------------
      1          6           0       34.327013   30.598546   30.381780
      2          6           0       34.033218   29.471824   29.532220
      3          6           0       32.748045   28.981136   29.363566
      4          6           0       31.648207   29.555650   30.014393
      5          6           0       31.893137   30.653531   30.849889
      6          6           0       33.170120   31.160169   31.032784
      7          8           0       35.501577   31.056139   30.542604
      8          1           0       30.642838   29.164725   29.875979
      9          1           0       34.874523   29.011362   29.017032
     10          1           0       32.591684   28.124637   28.705379
     11          1           0       31.058157   31.124346   31.371667
     12          1           0       33.339482   32.013937   31.686707
 ---------------------------------------------------------------------
                    Distance matrix (angstroms):
                    1          2          3          4          5
     1  C    0.000000
     2  C    1.441377   0.000000
     3  C    2.479095   1.385962   0.000000
     4  C    2.898035   2.434707   1.401173   0.000000
     5  C    2.479093   2.777162   2.395189   1.401209   0.000000
     6  C    1.441397   2.418085   2.777160   2.434712   1.385936
     7  O    1.270770   2.384744   3.643858   4.168805   3.643811
     8  H    3.985577   3.421573   2.174436   1.087542   2.174463
     9  H    2.163668   1.088687   2.154741   3.420541   3.865844
    10  H    3.455707   2.139299   1.091444   2.156726   3.388538
    11  H    3.455685   3.868512   3.388442   2.156655   1.091380
    12  H    2.163650   3.403736   3.865833   3.420558   2.154735
                    6          7          8          9         10
     6  C    0.000000
     7  O    2.384698   0.000000
     8  H    3.421571   5.256347   0.000000
     9  H    3.403765   2.627105   4.320703   0.000000
    10  H    3.868572   4.520683   2.500018   2.468758   0.000000
    11  H    2.139279   4.520617   2.499938   4.957183   4.296400
    12  H    1.088678   2.626976   4.320721   4.301043   4.957234
                   11         12
    11  H    0.000000
    12  H    2.468818   0.000000
 Stoichiometry    C6H5O(1-)
 Framework group  C1[X(C6H5O)]
 Deg. of freedom    30
 Full point group                 C1      NOp   1
 Largest Abelian subgroup         C1      NOp   1
 Largest concise Abelian subgroup C1      NOp   1
                         Standard orientation:                         
 ---------------------------------------------------------------------
 Center     Atomic      Atomic             Coordinates (Angstroms)
 Number     Number       Type             X           Y           Z
 ---------------------------------------------------------------------
      1          6           0        1.072694   -0.000040    0.000030
      2          6           0        0.287930   -1.209054    0.000283
      3          6           0       -1.097984   -1.197567    0.000118
      4          6           0       -1.825341    0.000030   -0.000127
      5          6           0       -1.097907    1.197621   -0.000005
      6          6           0        0.287982    1.209031    0.000203
      7          8           0        2.343464   -0.000011   -0.000301
      8          1           0       -2.912883    0.000060   -0.000895
      9          1           0        0.834555   -2.150563    0.000041
     10          1           0       -1.634201   -2.148209   -0.000235
     11          1           0       -1.634124    2.148191   -0.000218
     12          1           0        0.834693    2.150480    0.000702
 ---------------------------------------------------------------------
 Rotational constants (GHZ):           5.7346028           2.6928085           1.8323762
 Standard basis: 6-31+G(d) (6D, 7F)
 There are   143 symmetry adapted cartesian basis functions of A   symmetry.
 There are   143 symmetry adapted basis functions of A   symmetry.
   143 basis functions,   244 primitive gaussians,   143 cartesian basis functions
    25 alpha electrons       25 beta electrons
       nuclear repulsion energy       259.6979690432 Hartrees.
 NAtoms=   12 NActive=   12 NUniq=   12 SFac= 1.00D+00 NAtFMM=   60 NAOKFM=F Big=F
 Integral buffers will be    131072 words long.
 Raffenetti 1 integral format.
 Two-electron integral symmetry is turned on.
 One-electron integrals computed using PRISM.
 NBasis=   143 RedAO= T EigKep=  5.84D-06  NBF=   143
 NBsUse=   143 1.00D-06 EigRej= -1.00D+00 NBFU=   143
 ExpMin= 4.38D-02 ExpMax= 5.48D+03 ExpMxC= 8.25D+02 IAcc=3 IRadAn=         5 AccDes= 0.00D+00
 Harris functional with IExCor=20419 and IRadAn=       5 diagonalized for initial guess.
 HarFok:  IExCor=20419 AccDes= 0.00D+00 IRadAn=         5 IDoV= 1 UseB2=F ITyADJ=14
 ICtDFT=  3500011 ScaDFX=  1.000000  1.000000  1.000000  1.000000
 FoFCou: FMM=F IPFlag=           0 FMFlag=      100000 FMFlg1=           0
         NFxFlg=           0 DoJE=T BraDBF=F KetDBF=T FulRan=T
         wScrn=  0.000000 ICntrl=       500 IOpCl=  0 I1Cent=   200000004 NGrid=           0
         NMat0=    1 NMatS0=      1 NMatT0=    0 NMatD0=    1 NMtDS0=    0 NMtDT0=    0
 Petite list used in FoFCou.
 Keep R1 ints in memory in canonical form, NReq=121488636.
 Requested convergence on RMS density matrix=1.00D-08 within 128 cycles.
 Requested convergence on MAX density matrix=1.00D-06.
 Requested convergence on             energy=1.00D-06.
 No special actions if energy rises.
 SCF Done:  E(RCAM-B3LYP) =  -306.756688914     A.U. after   14 cycles
            NFock= 14  Conv=0.55D-08     -V/T= 2.0092
 DoSCS=F DFT=T ScalE2(SS,OS)=  1.000000  1.000000
 ExpMin= 4.38D-02 ExpMax= 5.48D+03 ExpMxC= 8.25D+02 IAcc=3 IRadAn=         5 AccDes= 0.00D+00
 HarFok:  IExCor=  205 AccDes= 0.00D+00 IRadAn=         5 IDoV=-2 UseB2=F ITyADJ=14
 ICtDFT= 12500011 ScaDFX=  1.000000  1.000000  1.000000  1.000000
 Range of M.O.s used for correlation:     8   143
 NBasis=   143 NAE=    25 NBE=    25 NFC=     7 NFV=     0
 NROrb=    136 NOA=    18 NOB=    18 NVA=   118 NVB=   118

 **** Warning!!: The largest alpha MO coefficient is  0.11432616D+03

 Keep R1, R2, and R3 ints in memory in canonical form, NReq=350438064.
 Orbital symmetries:
       Occupied  (A) (A) (A) (A) (A) (A) (A) (A) (A) (A) (A) (A)
                 (A) (A) (A) (A) (A) (A) (A) (A) (A) (A) (A) (A)
                 (A)
       Virtual   (A) (A) (A) (A) (A) (A) (A) (A) (A) (A) (A) (A)
                 (A) (A) (A) (A) (A) (A) (A) (A) (A) (A) (A) (A)
                 (A) (A) (A) (A) (A) (A) (A) (A) (A) (A) (A) (A)
                 (A) (A) (A) (A) (A) (A) (A) (A) (A) (A) (A) (A)
                 (A) (A) (A) (A) (A) (A) (A) (A) (A) (A) (A) (A)
                 (A) (A) (A) (A) (A) (A) (A) (A) (A) (A) (A) (A)
                 (A) (A) (A) (A) (A) (A) (A) (A) (A) (A) (A) (A)
                 (A) (A) (A) (A) (A) (A) (A) (A) (A) (A) (A) (A)
                 (A) (A) (A) (A) (A) (A) (A) (A) (A) (A) (A) (A)
                 (A) (A) (A) (A) (A) (A) (A) (A) (A) (A)
    12 initial guesses have been made.
 Convergence on wavefunction:    0.000001000000000
 Iteration     1 Dimension    12 NMult     0 NNew     12
 CISAX will form    12 AO SS matrices at one time.
 Iteration     2 Dimension    24 NMult    12 NNew     12
 Iteration     3 Dimension    27 NMult    24 NNew      3
 Iteration     4 Dimension    30 NMult    27 NNew      3
 Iteration     5 Dimension    33 NMult    30 NNew      3
 Iteration     6 Dimension    36 NMult    33 NNew      3
 Iteration     7 Dimension    39 NMult    36 NNew      3
 Iteration     8 Dimension    42 NMult    39 NNew      3
 Iteration     9 Dimension    45 NMult    42 NNew      3
 Iteration    10 Dimension    48 NMult    45 NNew      3
 Iteration    11 Dimension    51 NMult    48 NNew      3
 Iteration    12 Dimension    53 NMult    51 NNew      2
 ***********************************************************************
 Excited states from <AA,BB:AA,BB> singles matrix:
 ***********************************************************************
 
 Ground to excited state transition densities written to RWF  633
 Ground to excited state transition electric dipole moments (Au):
       state          X           Y           Z        Dip. S.      Osc.
         1         0.0001      0.0000     -0.1096      0.0120      0.0010
         2        -0.0001      0.0001     -0.0001      0.0000      0.0000
         3        -0.0006     -0.0007      0.3900      0.1521      0.0154
 Ground to excited state transition velocity dipole moments (Au):
       state          X           Y           Z        Dip. S.      Osc.
         1        -0.0001      0.0000      0.0064      0.0000      0.0002
         2         0.0000     -0.0000      0.0000      0.0000      0.0000
         3         0.0000      0.0000     -0.0303      0.0009      0.0040
 Ground to excited state transition magnetic dipole moments (Au):
       state          X           Y           Z
         1         0.0000      0.2724      0.0001
         2        -0.1433      0.0000      0.0000
         3        -0.0000     -0.0874     -0.0003
 Ground to excited state transition velocity quadrupole moments (Au):
       state          XX          YY          ZZ          XY          XZ          YZ
         1         0.0004     -0.0001     -0.0002      0.0000     -0.2725      0.0000
         2        -0.0000      0.0001     -0.0000     -0.0000     -0.0000     -0.0710
         3        -0.0001     -0.0001     -0.0000      0.0001      0.1560      0.0000
 <0|del|b> * <b|rxdel|0> + <0|del|b> * <b|delr+rdel|0>
 Rotatory Strengths (R) in cgs (10**-40 erg-esu-cm/Gauss)
       state          XX          YY          ZZ    R(velocity)    E-M Angle
         1         0.0121      0.0010     -0.0000      0.0044       90.00
         2        -0.0000     -0.0110     -0.0037     -0.0049       90.00
         3         0.0036      0.0286      0.0044      0.0122       90.00
 1/2[<0|r|b>*<b|rxdel|0> + (<0|rxdel|b>*<b|r|0>)*]
 Rotatory Strengths (R) in cgs (10**-40 erg-esu-cm/Gauss)
       state          XX          YY          ZZ     R(length)
         1        -0.0000     -0.0071      0.0083      0.0004
         2        -0.0126     -0.0000      0.0000     -0.0042
         3        -0.0000     -0.0408      0.0935      0.0176
  1/2[<0|del|b>*<b|r|0> + (<0|r|b>*<b|del|0>)*] (Au)
       state          X           Y           Z        Dip. S.   Osc.(frdel)
         1        -0.0000      0.0000     -0.0007      0.0007      0.0005
         2        -0.0000     -0.0000     -0.0000      0.0000      0.0000
         3        -0.0000     -0.0000     -0.0118      0.0118      0.0079

 Excitation energies and oscillator strengths:
 
 Excited State   1:      Singlet-A      3.5567 eV  348.59 nm  f=0.0010  <S**2>=0.000
      25 -> 26         0.68857
 This state for optimization and/or second-order correction.
 Total Energy, E(CIS/TDA) =  -306.625982520    
 Copying the excited state density for this state as the 1-particle RhoCI density.
 
 Excited State   2:      Singlet-A      3.9387 eV  314.79 nm  f=0.0000  <S**2>=0.000
      25 -> 27         0.69057
      25 -> 29         0.11494
 
 Excited State   3:      Singlet-A      4.1337 eV  299.93 nm  f=0.0154  <S**2>=0.000
      25 -> 26        -0.11581
      25 -> 28         0.64603
      25 -> 31        -0.23313
 SavETr:  write IOETrn=   770 NScale= 10 NData=  16 NLR=1 NState=    3 LETran=      64.
          IDoAtm=111111111111
          Differentiating once with respect to electric field.
                with respect to dipole field.
          Differentiating once with respect to nuclear coordinates.
 Keep R1 ints in memory in canonical form, NReq=121497196.
          There are     1 degrees of freedom in the 1st order CPHF.  IDoFFX=0 NUNeed=     1.
 LinEq1:  Iter=  0 NonCon=     1 RMS=1.61D-02 Max=3.69D-01 NDo=     1
 AX will form     1 AO Fock derivatives at one time.
 LinEq1:  Iter=  1 NonCon=     1 RMS=6.39D-03 Max=1.06D-01 NDo=     1
 LinEq1:  Iter=  2 NonCon=     1 RMS=4.10D-03 Max=4.62D-02 NDo=     1
 LinEq1:  Iter=  3 NonCon=     1 RMS=1.40D-03 Max=2.91D-02 NDo=     1
 LinEq1:  Iter=  4 NonCon=     1 RMS=9.64D-04 Max=2.24D-02 NDo=     1
 LinEq1:  Iter=  5 NonCon=     1 RMS=3.60D-04 Max=5.85D-03 NDo=     1
 LinEq1:  Iter=  6 NonCon=     1 RMS=1.60D-04 Max=3.44D-03 NDo=     1
 LinEq1:  Iter=  7 NonCon=     1 RMS=6.07D-05 Max=9.56D-04 NDo=     1
 LinEq1:  Iter=  8 NonCon=     1 RMS=1.21D-05 Max=1.31D-04 NDo=     1
 LinEq1:  Iter=  9 NonCon=     1 RMS=4.41D-06 Max=8.56D-05 NDo=     1
 LinEq1:  Iter= 10 NonCon=     1 RMS=1.84D-06 Max=3.08D-05 NDo=     1
 LinEq1:  Iter= 11 NonCon=     1 RMS=4.39D-07 Max=5.99D-06 NDo=     1
 LinEq1:  Iter= 12 NonCon=     1 RMS=8.50D-08 Max=7.96D-07 NDo=     1
 LinEq1:  Iter= 13 NonCon=     1 RMS=1.60D-08 Max=2.98D-07 NDo=     1
 LinEq1:  Iter= 14 NonCon=     1 RMS=1.01D-08 Max=2.37D-07 NDo=     1
 LinEq1:  Iter= 15 NonCon=     1 RMS=2.89D-09 Max=4.41D-08 NDo=     1
 LinEq1:  Iter= 16 NonCon=     1 RMS=5.01D-10 Max=1.09D-08 NDo=     1
 LinEq1:  Iter= 17 NonCon=     1 RMS=1.42D-10 Max=2.20D-09 NDo=     1
 LinEq1:  Iter= 18 NonCon=     1 RMS=7.45D-11 Max=1.44D-09 NDo=     1
 LinEq1:  Iter= 19 NonCon=     0 RMS=2.19D-11 Max=3.05D-10 NDo=     1
 Linear equations converged to 1.000D-10 1.000D-09 after    19 iterations.
 End of Minotr F.D. properties file   721 does not exist.
 End of Minotr F.D. properties file   722 does not exist.
 End of Minotr F.D. properties file   788 does not exist.

 **********************************************************************

            Population analysis using the SCF Density.

 **********************************************************************

 Orbital symmetries:
       Occupied  (A) (A) (A) (A) (A) (A) (A) (A) (A) (A) (A) (A)
                 (A) (A) (A) (A) (A) (A) (A) (A) (A) (A) (A) (A)
                 (A)
       Virtual   (A) (A) (A) (A) (A) (A) (A) (A) (A) (A) (A) (A)
                 (A) (A) (A) (A) (A) (A) (A) (A) (A) (A) (A) (A)
                 (A) (A) (A) (A) (A) (A) (A) (A) (A) (A) (A) (A)
                 (A) (A) (A) (A) (A) (A) (A) (A) (A) (A) (A) (A)
                 (A) (A) (A) (A) (A) (A) (A) (A) (A) (A) (A) (A)
                 (A) (A) (A) (A) (A) (A) (A) (A) (A) (A) (A) (A)
                 (A) (A) (A) (A) (A) (A) (A) (A) (A) (A) (A) (A)
                 (A) (A) (A) (A) (A) (A) (A) (A) (A) (A) (A) (A)
                 (A) (A) (A) (A) (A) (A) (A) (A) (A) (A) (A) (A)
                 (A) (A) (A) (A) (A) (A) (A) (A) (A) (A)
 The electronic state is 1-A.
 Alpha  occ. eigenvalues --  -18.97104 -10.12976 -10.10336 -10.10335 -10.08690
 Alpha  occ. eigenvalues --  -10.07520 -10.07520  -0.86877  -0.74801  -0.65239
 Alpha  occ. eigenvalues --   -0.61725  -0.50361  -0.48236  -0.40734  -0.34865
 Alpha  occ. eigenvalues --   -0.34774  -0.31449  -0.28922  -0.27566  -0.24504
 Alpha  occ. eigenvalues --   -0.23662  -0.20213  -0.14010  -0.10171  -0.05762
 Alpha virt. eigenvalues --    0.15874   0.16823   0.17755   0.19740   0.19824
 Alpha virt. eigenvalues --    0.20001   0.22127   0.22214   0.22559   0.24571
 Alpha virt. eigenvalues --    0.25408   0.26141   0.26676   0.29053   0.29146
 Alpha virt. eigenvalues --    0.29811   0.30379   0.30837   0.32525   0.32786
 Alpha virt. eigenvalues --    0.33674   0.34120   0.36566   0.37985   0.38634
 Alpha virt. eigenvalues --    0.39176   0.40126   0.41642   0.43248   0.46165
 Alpha virt. eigenvalues --    0.48378   0.49019   0.49486   0.50124   0.52240
 Alpha virt. eigenvalues --    0.53876   0.56279   0.56742   0.60469   0.61647
 Alpha virt. eigenvalues --    0.68977   0.81492   0.83276   0.84109   0.88245
 Alpha virt. eigenvalues --    0.91070   0.93898   0.94713   0.94969   0.97375
 Alpha virt. eigenvalues --    0.97645   0.97869   1.01357   1.04551   1.06869
 Alpha virt. eigenvalues --    1.11155   1.15420   1.15942   1.16721   1.18770
 Alpha virt. eigenvalues --    1.23390   1.23739   1.30129   1.31056   1.34445
 Alpha virt. eigenvalues --    1.37769   1.39373   1.48496   1.49802   1.50065
 Alpha virt. eigenvalues --    1.52589   1.59111   1.60138   1.64987   1.66145
 Alpha virt. eigenvalues --    1.70584   1.71863   1.72831   1.73708   1.76131
 Alpha virt. eigenvalues --    1.92134   2.03321   2.06634   2.10213   2.14719
 Alpha virt. eigenvalues --    2.17616   2.22576   2.25580   2.26574   2.28430
 Alpha virt. eigenvalues --    2.30427   2.33771   2.39668   2.41114   2.41617
 Alpha virt. eigenvalues --    2.51039   2.54382   2.57610   2.59460   2.81529
 Alpha virt. eigenvalues --    2.84233   2.88308   2.89294   2.94657   2.99535
 Alpha virt. eigenvalues --    3.00418   3.11143   3.11200   3.41188   3.41862
 Alpha virt. eigenvalues --    3.64286   4.46945   4.48122   4.48769   4.59199
 Alpha virt. eigenvalues --    4.62786   4.75463   5.06591
          Condensed to atoms (all electrons):
               1          2          3          4          5          6
     1  C    5.833924  -0.256387   0.089923  -0.049832   0.090048  -0.256192
     2  C   -0.256387  10.034181  -0.335587  -0.190877   0.609660  -3.869501
     3  C    0.089923  -0.335587   5.526062   0.434301  -0.307873   0.609352
     4  C   -0.049832  -0.190877   0.434301   5.528988   0.434280  -0.190952
     5  C    0.090048   0.609660  -0.307873   0.434280   5.526295  -0.336203
     6  C   -0.256192  -3.869501   0.609352  -0.190952  -0.336203  10.035013
     7  O    0.643783  -0.300996   0.012354  -0.018135   0.012372  -0.301046
     8  H   -0.013784   0.008691  -0.007979   0.302415  -0.007985   0.008690
     9  H    0.074114   0.272311  -0.117410   0.007168  -0.017757   0.076868
    10  H   -0.021063   0.021702   0.280857   0.013168   0.020824  -0.031401
    11  H   -0.021068  -0.031405   0.020835   0.013141   0.280892   0.021691
    12  H    0.074091   0.076869  -0.017758   0.007178  -0.117410   0.272328
               7          8          9         10         11         12
     1  C    0.643783  -0.013784   0.074114  -0.021063  -0.021068   0.074091
     2  C   -0.300996   0.008691   0.272311   0.021702  -0.031405   0.076869
     3  C    0.012354  -0.007979  -0.117410   0.280857   0.020835  -0.017758
     4  C   -0.018135   0.302415   0.007168   0.013168   0.013141   0.007178
     5  C    0.012372  -0.007985  -0.017757   0.020824   0.280892  -0.117410
     6  C   -0.301046   0.008690   0.076868  -0.031401   0.021691   0.272328
     7  O    8.719777   0.000127  -0.007430  -0.000779  -0.000779  -0.007434
     8  H    0.000127   0.591128  -0.000147  -0.005043  -0.005044  -0.000147
     9  H   -0.007430  -0.000147   0.573657  -0.005997   0.000015  -0.000169
    10  H   -0.000779  -0.005043  -0.005997   0.596368  -0.000206   0.000015
    11  H   -0.000779  -0.005044   0.000015  -0.000206   0.596372  -0.005996
    12  H   -0.007434  -0.000147  -0.000169   0.000015  -0.005996   0.573653
 Mulliken charges:
               1
     1  C   -0.187555
     2  C   -0.038661
     3  C   -0.187076
     4  C   -0.290843
     5  C   -0.187143
     6  C   -0.038649
     7  O   -0.751814
     8  H    0.129079
     9  H    0.144775
    10  H    0.131554
    11  H    0.131554
    12  H    0.144779
 Sum of Mulliken charges =  -1.00000
 Mulliken charges with hydrogens summed into heavy atoms:
               1
     1  C   -0.187555
     2  C    0.106114
     3  C   -0.055522
     4  C   -0.161763
     5  C   -0.055590
     6  C    0.106130
     7  O   -0.751814
 Electronic spatial extent (au):  <R**2>=            672.7044
 Charge=             -1.0000 electrons
 Dipole moment (field-independent basis, Debye):
    X=             -4.8966    Y=              0.0002    Z=             -0.0004  Tot=              4.8966
 Quadrupole moment (field-independent basis, Debye-Ang):
   XX=            -66.2771   YY=            -46.1468   ZZ=            -49.1343
   XY=              0.0001   XZ=              0.0058   YZ=              0.0019
 Traceless Quadrupole moment (field-independent basis, Debye-Ang):
   XX=            -12.4243   YY=              7.7059   ZZ=              4.7184
   XY=              0.0001   XZ=              0.0058   YZ=              0.0019
 Octapole moment (field-independent basis, Debye-Ang**2):
  XXX=            -37.0792  YYY=              0.0008  ZZZ=             -0.0051  XYY=              1.6170
  XXY=              0.0013  XXZ=             -0.0029  XZZ=              6.3222  YZZ=              0.0004
  YYZ=             -0.0023  XYZ=              0.0012
 Hexadecapole moment (field-independent basis, Debye-Ang**3):
 XXXX=           -722.3492 YYYY=           -342.5144 ZZZZ=            -71.2987 XXXY=              0.0001
 XXXZ=              0.0435 YYYX=             -0.0002 YYYZ=              0.0122 ZZZX=              0.0029
 ZZZY=              0.0041 XXYY=           -157.4463 XXZZ=           -121.2797 YYZZ=            -78.5775
 XXYZ=              0.0021 YYXZ=              0.0069 ZZXY=             -0.0001
 N-N= 2.596979690432D+02 E-N=-1.242719209347D+03  KE= 3.039491799213D+02
 Calling FoFJK, ICntrl=  10005127 FMM=F ISym2X=0 I1Cent= 0 IOpClX= 0 NMat=1 NMatS=1 NMatT=0.
 ***** Axes restored to original set *****
 -------------------------------------------------------------------
 Center     Atomic                   Forces (Hartrees/Bohr)
 Number     Number              X              Y              Z
 -------------------------------------------------------------------
      1        6           0.007010924    0.002729854    0.000987064
      2        6          -0.004614332   -0.013505830   -0.010043908
      3        6           0.015318348    0.001846626   -0.001207722
      4        6           0.009227305    0.003628772    0.001240874
      5        6           0.011808900    0.008678832    0.004884201
      6        6          -0.014601261    0.006027117    0.007386144
      7        8          -0.020646341   -0.008053469   -0.002828063
      8        1          -0.000571570   -0.000238689   -0.000059430
      9        1          -0.000887469   -0.000510826   -0.000240353
     10        1          -0.000793797    0.000381845    0.000464446
     11        1          -0.000222166   -0.000762198   -0.000556542
     12        1          -0.001028541   -0.000222034   -0.000026711
 -------------------------------------------------------------------
 Cartesian Forces:  Max     0.020646341 RMS     0.006967976

 GradGradGradGradGradGradGradGradGradGradGradGradGradGradGradGradGradGrad
 Berny optimization.
 FormGI is forming the generalized inverse of G from B-inverse, IUseBI=4.
 Internal  Forces:  Max     0.022341164 RMS     0.006085259
 Search for a local minimum.
 Step number   1 out of a maximum of   64
 All quantities printed in internal units (Hartrees-Bohrs-Radians)
 Mixed Optimization -- RFO/linear search
 Second derivative matrix not updated -- first step.
 ITU=  0
     Eigenvalues ---    0.01541   0.01694   0.01878   0.01940   0.02073
     Eigenvalues ---    0.02083   0.02135   0.02179   0.02192   0.16000
     Eigenvalues ---    0.16000   0.16000   0.16000   0.16000   0.22000
     Eigenvalues ---    0.22000   0.23427   0.25000   0.34646   0.34654
     Eigenvalues ---    0.34965   0.34966   0.35098   0.37671   0.38340
     Eigenvalues ---    0.43696   0.43972   0.46382   0.48031   0.76011
 RFO step:  Lambda=-5.30791336D-03 EMin= 1.54128335D-02
 Linear search not attempted -- first point.
 Iteration  1 RMS(Cart)=  0.02749637 RMS(Int)=  0.00027176
 Iteration  2 RMS(Cart)=  0.00034560 RMS(Int)=  0.00000671
 Iteration  3 RMS(Cart)=  0.00000004 RMS(Int)=  0.00000671
 Variable       Old X    -DE/DX   Delta X   Delta X   Delta X     New X
                                 (Linear)    (Quad)   (Total)
    R1        2.72381   0.00593   0.00000   0.01572   0.01571   2.73952
    R2        2.72385   0.00593   0.00000   0.01571   0.01570   2.73955
    R3        2.40141  -0.02234   0.00000  -0.02919  -0.02919   2.37222
    R4        2.61909  -0.01879   0.00000  -0.03871  -0.03871   2.58038
    R5        2.05732  -0.00036   0.00000  -0.00100  -0.00100   2.05632
    R6        2.64783   0.00307   0.00000   0.00591   0.00592   2.65376
    R7        2.06253  -0.00047   0.00000  -0.00132  -0.00132   2.06120
    R8        2.64790   0.00305   0.00000   0.00588   0.00589   2.65379
    R9        2.05516   0.00062   0.00000   0.00175   0.00175   2.05690
   R10        2.61904  -0.01878   0.00000  -0.03868  -0.03868   2.58036
   R11        2.06241  -0.00042   0.00000  -0.00121  -0.00121   2.06120
   R12        2.05730  -0.00035   0.00000  -0.00099  -0.00099   2.05632
    A1        1.99017   0.01349   0.00000   0.05691   0.05689   2.04706
    A2        2.14656  -0.00675   0.00000  -0.02849  -0.02848   2.11808
    A3        2.14646  -0.00673   0.00000  -0.02842  -0.02841   2.11805
    A4        2.13825  -0.00879   0.00000  -0.03621  -0.03622   2.10203
    A5        2.03983   0.00542   0.00000   0.02426   0.02427   2.06410
    A6        2.10510   0.00338   0.00000   0.01194   0.01195   2.11705
    A7        2.12489  -0.00315   0.00000  -0.01433  -0.01432   2.11057
    A8        2.07608   0.00248   0.00000   0.01266   0.01265   2.08873
    A9        2.08222   0.00067   0.00000   0.00168   0.00167   2.08389
   A10        2.04994   0.01041   0.00000   0.04418   0.04420   2.09413
   A11        2.11663  -0.00520   0.00000  -0.02208  -0.02209   2.09453
   A12        2.11662  -0.00520   0.00000  -0.02209  -0.02210   2.09452
   A13        2.12488  -0.00315   0.00000  -0.01434  -0.01433   2.11055
   A14        2.08213   0.00068   0.00000   0.00174   0.00173   2.08387
   A15        2.07617   0.00248   0.00000   0.01261   0.01260   2.08877
   A16        2.13825  -0.00879   0.00000  -0.03620  -0.03621   2.10204
   A17        2.03979   0.00542   0.00000   0.02427   0.02428   2.06407
   A18        2.10515   0.00338   0.00000   0.01193   0.01193   2.11708
    D1        0.00046  -0.00001   0.00000  -0.00035  -0.00036   0.00011
    D2        3.14146   0.00001   0.00000   0.00019   0.00018  -3.14154
    D3       -3.14114  -0.00001   0.00000  -0.00024  -0.00024  -3.14138
    D4       -0.00014   0.00001   0.00000   0.00030   0.00030   0.00016
    D5       -0.00050   0.00001   0.00000   0.00035   0.00035  -0.00015
    D6        3.14089   0.00001   0.00000   0.00044   0.00045   3.14134
    D7        3.14111   0.00001   0.00000   0.00023   0.00023   3.14134
    D8       -0.00069   0.00001   0.00000   0.00033   0.00033  -0.00035
    D9       -0.00015   0.00001   0.00000   0.00022   0.00021   0.00006
   D10        3.14100   0.00002   0.00000   0.00065   0.00064  -3.14154
   D11       -3.14113  -0.00001   0.00000  -0.00034  -0.00034  -3.14148
   D12        0.00002   0.00000   0.00000   0.00009   0.00009   0.00011
   D13       -0.00016  -0.00000   0.00000  -0.00003  -0.00004  -0.00020
   D14        3.14090   0.00002   0.00000   0.00059   0.00059   3.14149
   D15       -3.14131  -0.00001   0.00000  -0.00046  -0.00047   3.14141
   D16       -0.00025   0.00000   0.00000   0.00016   0.00016  -0.00009
   D17        0.00012   0.00000   0.00000   0.00003   0.00003   0.00015
   D18        3.14156   0.00001   0.00000   0.00021   0.00022  -3.14141
   D19       -3.14094  -0.00002   0.00000  -0.00060  -0.00060  -3.14154
   D20        0.00050  -0.00001   0.00000  -0.00041  -0.00041   0.00009
   D21        0.00023  -0.00001   0.00000  -0.00021  -0.00020   0.00003
   D22       -3.14116  -0.00001   0.00000  -0.00031  -0.00031  -3.14147
   D23       -3.14121  -0.00001   0.00000  -0.00039  -0.00039   3.14158
   D24        0.00058  -0.00001   0.00000  -0.00050  -0.00049   0.00009
         Item               Value     Threshold  Converged?
 Maximum Force            0.022341     0.000450     NO 
 RMS     Force            0.006085     0.000300     NO 
 Maximum Displacement     0.089543     0.001800     NO 
 RMS     Displacement     0.027518     0.001200     NO 
 Predicted change in Energy=-2.699225D-03
 GradGradGradGradGradGradGradGradGradGradGradGradGradGradGradGradGradGrad

                          Input orientation:                          
 ---------------------------------------------------------------------
 Center     Atomic      Atomic             Coordinates (Angstroms)
 Number     Number       Type             X           Y           Z
 ---------------------------------------------------------------------
      1          6           0       34.293855   30.585576   30.377304
      2          6           0       34.038426   29.449796   29.513379
      3          6           0       32.768577   28.973820   29.353804
      4          6           0       31.685316   29.570224   30.019332
      5          6           0       31.900472   30.671910   30.863207
      6          6           0       33.154694   31.178413   31.049991
      7          8           0       35.454193   31.037415   30.536355
      8          1           0       30.679167   29.178632   29.881214
      9          1           0       34.882172   28.992403   29.000574
     10          1           0       32.590559   28.118494   28.700776
     11          1           0       31.052195   31.127611   31.375535
     12          1           0       33.328374   32.031707   31.702529
 ---------------------------------------------------------------------
                    Distance matrix (angstroms):
                    1          2          3          4          5
     1  C    0.000000
     2  C    1.449692   0.000000
     3  C    2.443723   1.365479   0.000000
     4  C    2.821978   2.409900   1.404308   0.000000
     5  C    2.443735   2.808282   2.432162   1.404325   0.000000
     6  C    1.449707   2.475939   2.808267   2.409896   1.365469
     7  O    1.255324   2.360383   3.587391   4.077302   3.587389
     8  H    3.910443   3.390200   2.164658   1.088465   2.164665
     9  H    2.186253   1.088156   2.142988   3.404648   3.896239
    10  H    3.434888   2.128147   1.090743   2.159994   3.416469
    11  H    3.434913   3.898752   3.416457   2.159996   1.090741
    12  H    2.186245   3.458731   3.896223   3.404658   2.142993
                    6          7          8          9         10
     6  C    0.000000
     7  O    2.360381   0.000000
     8  H    3.390191   5.165767   0.000000
     9  H    3.458747   2.620668   4.298309   0.000000
    10  H    3.898739   4.482170   2.484099   2.470847   0.000000
    11  H    2.128159   4.482181   2.484081   4.986810   4.309952
    12  H    1.088156   2.620626   4.298317   4.353414   4.986796
                   11         12
    11  H    0.000000
    12  H    2.470893   0.000000
 Stoichiometry    C6H5O(1-)
 Framework group  C1[X(C6H5O)]
 Deg. of freedom    30
 Full point group                 C1      NOp   1
 Largest Abelian subgroup         C1      NOp   1
 Largest concise Abelian subgroup C1      NOp   1
                         Standard orientation:                         
 ---------------------------------------------------------------------
 Center     Atomic      Atomic             Coordinates (Angstroms)
 Number     Number       Type             X           Y           Z
 ---------------------------------------------------------------------
      1          6           0        1.041748   -0.000008    0.000045
      2          6           0        0.287392   -1.237971    0.000085
      3          6           0       -1.077912   -1.216076    0.000039
      4          6           0       -1.780230   -0.000005   -0.000125
      5          6           0       -1.077911    1.216086   -0.000007
      6          6           0        0.287383    1.237968    0.000093
      7          8           0        2.297072    0.000008   -0.000137
      8          1           0       -2.868695    0.000000   -0.000252
      9          1           0        0.837700   -2.176718    0.000102
     10          1           0       -1.633052   -2.154979    0.000122
     11          1           0       -1.633076    2.154973    0.000043
     12          1           0        0.837721    2.176697    0.000303
 ---------------------------------------------------------------------
 Rotational constants (GHZ):           5.5423534           2.8046467           1.8622671
 Standard basis: 6-31+G(d) (6D, 7F)
 There are   143 symmetry adapted cartesian basis functions of A   symmetry.
 There are   143 symmetry adapted basis functions of A   symmetry.
   143 basis functions,   244 primitive gaussians,   143 cartesian basis functions
    25 alpha electrons       25 beta electrons
       nuclear repulsion energy       260.8577731792 Hartrees.
 NAtoms=   12 NActive=   12 NUniq=   12 SFac= 1.00D+00 NAtFMM=   60 NAOKFM=F Big=F
 Integral buffers will be    131072 words long.
 Raffenetti 1 integral format.
 Two-electron integral symmetry is turned on.
 One-electron integrals computed using PRISM.
 NBasis=   143 RedAO= T EigKep=  5.88D-06  NBF=   143
 NBsUse=   143 1.00D-06 EigRej= -1.00D+00 NBFU=   143
 Initial guess from the checkpoint file:  "phenolate_camb3lyp_tddft.chk"
 B after Tr=     0.000000   -0.000000    0.000000
         Rot=    1.000000   -0.000000   -0.000000   -0.000009 Ang=  -0.00 deg.
 ExpMin= 4.38D-02 ExpMax= 5.48D+03 ExpMxC= 8.25D+02 IAcc=2 IRadAn=         4 AccDes= 0.00D+00
 Harris functional with IExCor=20419 and IRadAn=       4 diagonalized for initial guess.
 HarFok:  IExCor=20419 AccDes= 0.00D+00 IRadAn=         4 IDoV= 1 UseB2=F ITyADJ=14
 ICtDFT=  3500011 ScaDFX=  1.000000  1.000000  1.000000  1.000000
 FoFCou: FMM=F IPFlag=           0 FMFlag=      100000 FMFlg1=           0
         NFxFlg=           0 DoJE=T BraDBF=F KetDBF=T FulRan=T
         wScrn=  0.000000 ICntrl=       500 IOpCl=  0 I1Cent=   200000004 NGrid=           0
         NMat0=    1 NMatS0=      1 NMatT0=    0 NMatD0=    1 NMtDS0=    0 NMtDT0=    0
 Petite list used in FoFCou.
 Keep R1 ints in memory in canonical form, NReq=121488636.
 Requested convergence on RMS density matrix=1.00D-08 within 128 cycles.
 Requested convergence on MAX density matrix=1.00D-06.
 Requested convergence on             energy=1.00D-06.
 No special actions if energy rises.
 SCF Done:  E(RCAM-B3LYP) =  -306.753950307     A.U. after   14 cycles
            NFock= 14  Conv=0.61D-08     -V/T= 2.0088
 DoSCS=F DFT=T ScalE2(SS,OS)=  1.000000  1.000000
 ExpMin= 4.38D-02 ExpMax= 5.48D+03 ExpMxC= 8.25D+02 IAcc=3 IRadAn=         5 AccDes= 0.00D+00
 HarFok:  IExCor=  205 AccDes= 0.00D+00 IRadAn=         5 IDoV=-2 UseB2=F ITyADJ=14
 ICtDFT= 12500011 ScaDFX=  1.000000  1.000000  1.000000  1.000000
 Range of M.O.s used for correlation:     8   143
 NBasis=   143 NAE=    25 NBE=    25 NFC=     7 NFV=     0
 NROrb=    136 NOA=    18 NOB=    18 NVA=   118 NVB=   118

 **** Warning!!: The largest alpha MO coefficient is  0.10790873D+03

 Keep R1, R2, and R3 ints in memory in canonical form, NReq=337753104.
 Orbital symmetries:
       Occupied  (A) (A) (A) (A) (A) (A) (A) (A) (A) (A) (A) (A)
                 (A) (A) (A) (A) (A) (A) (A) (A) (A) (A) (A) (A)
                 (A)
       Virtual   (A) (A) (A) (A) (A) (A) (A) (A) (A) (A) (A) (A)
                 (A) (A) (A) (A) (A) (A) (A) (A) (A) (A) (A) (A)
                 (A) (A) (A) (A) (A) (A) (A) (A) (A) (A) (A) (A)
                 (A) (A) (A) (A) (A) (A) (A) (A) (A) (A) (A) (A)
                 (A) (A) (A) (A) (A) (A) (A) (A) (A) (A) (A) (A)
                 (A) (A) (A) (A) (A) (A) (A) (A) (A) (A) (A) (A)
                 (A) (A) (A) (A) (A) (A) (A) (A) (A) (A) (A) (A)
                 (A) (A) (A) (A) (A) (A) (A) (A) (A) (A) (A) (A)
                 (A) (A) (A) (A) (A) (A) (A) (A) (A) (A) (A) (A)
                 (A) (A) (A) (A) (A) (A) (A) (A) (A) (A)
 Generating guess from densities on rwf.
 Convergence on wavefunction:    0.000001000000000
 Iteration     1 Dimension     3 NMult     0 NNew      3
 CISAX will form     3 AO SS matrices at one time.
 Iteration     2 Dimension     6 NMult     3 NNew      3
 Iteration     3 Dimension     9 NMult     6 NNew      3
 Iteration     4 Dimension    12 NMult     9 NNew      3
 Iteration     5 Dimension    15 NMult    12 NNew      3
 Iteration     6 Dimension    18 NMult    15 NNew      3
 Iteration     7 Dimension    21 NMult    18 NNew      3
 Iteration     8 Dimension    24 NMult    21 NNew      3
 Iteration     9 Dimension    27 NMult    24 NNew      3
 Iteration    10 Dimension    30 NMult    27 NNew      3
 Iteration    11 Dimension    33 NMult    30 NNew      3
 Iteration    12 Dimension    35 NMult    33 NNew      2
 Iteration    13 Dimension    37 NMult    35 NNew      2
 Iteration    14 Dimension    39 NMult    37 NNew      2
 Iteration    15 Dimension    40 NMult    39 NNew      1
 Iteration    16 Dimension    41 NMult    40 NNew      1
 ***********************************************************************
 Excited states from <AA,BB:AA,BB> singles matrix:
 ***********************************************************************
 
 Ground to excited state transition densities written to RWF  633
 Ground to excited state transition electric dipole moments (Au):
       state          X           Y           Z        Dip. S.      Osc.
         1        -0.0001      0.0000     -0.1072      0.0115      0.0010
         2        -0.0000      0.0001     -0.0000      0.0000      0.0000
         3        -0.0001     -0.0001      0.4119      0.1697      0.0166
 Ground to excited state transition velocity dipole moments (Au):
       state          X           Y           Z        Dip. S.      Osc.
         1        -0.0000      0.0000      0.0046      0.0000      0.0001
         2         0.0000     -0.0000      0.0000      0.0000      0.0000
         3         0.0000      0.0000     -0.0306      0.0009      0.0043
 Ground to excited state transition magnetic dipole moments (Au):
       state          X           Y           Z
         1         0.0000      0.2829      0.0000
         2        -0.1428      0.0000      0.0001
         3        -0.0000     -0.0810     -0.0001
 Ground to excited state transition velocity quadrupole moments (Au):
       state          XX          YY          ZZ          XY          XZ          YZ
         1         0.0001     -0.0000     -0.0001     -0.0000     -0.2690      0.0000
         2         0.0000      0.0000     -0.0000      0.0000     -0.0000     -0.0720
         3         0.0000     -0.0000     -0.0000      0.0000      0.1638      0.0000
 <0|del|b> * <b|rxdel|0> + <0|del|b> * <b|delr+rdel|0>
 Rotatory Strengths (R) in cgs (10**-40 erg-esu-cm/Gauss)
       state          XX          YY          ZZ    R(velocity)    E-M Angle
         1         0.0025      0.0006      0.0000      0.0011       90.00
         2         0.0000     -0.0014     -0.0005     -0.0006       90.00
         3        -0.0065      0.0067      0.0031      0.0011       90.00
 1/2[<0|r|b>*<b|rxdel|0> + (<0|rxdel|b>*<b|r|0>)*]
 Rotatory Strengths (R) in cgs (10**-40 erg-esu-cm/Gauss)
       state          XX          YY          ZZ     R(length)
         1         0.0000     -0.0061      0.0037     -0.0008
         2        -0.0030     -0.0000      0.0000     -0.0010
         3        -0.0000     -0.0086      0.0183      0.0032
  1/2[<0|del|b>*<b|r|0> + (<0|r|b>*<b|del|0>)*] (Au)
       state          X           Y           Z        Dip. S.   Osc.(frdel)
         1         0.0000      0.0000     -0.0005      0.0005      0.0003
         2        -0.0000     -0.0000     -0.0000      0.0000      0.0000
         3        -0.0000     -0.0000     -0.0126      0.0126      0.0084

 Excitation energies and oscillator strengths:
 
 Excited State   1:      Singlet-A      3.4105 eV  363.54 nm  f=0.0010  <S**2>=0.000
      25 -> 26        -0.69346
 This state for optimization and/or second-order correction.
 Total Energy, E(CIS/TDA) =  -306.628617384    
 Copying the excited state density for this state as the 1-particle RhoCI density.
 
 Excited State   2:      Singlet-A      3.7907 eV  327.07 nm  f=0.0000  <S**2>=0.000
      25 -> 27        -0.69295
      25 -> 29         0.10414
 
 Excited State   3:      Singlet-A      3.9926 eV  310.54 nm  f=0.0166  <S**2>=0.000
      25 -> 28         0.66487
      25 -> 30        -0.19484
 SavETr:  write IOETrn=   770 NScale= 10 NData=  16 NLR=1 NState=    3 LETran=      64.
          IDoAtm=111111111111
          Differentiating once with respect to electric field.
                with respect to dipole field.
          Differentiating once with respect to nuclear coordinates.
 Keep R1 ints in memory in canonical form, NReq=121497196.
          There are     1 degrees of freedom in the 1st order CPHF.  IDoFFX=0 NUNeed=     1.
 LinEq1:  Iter=  0 NonCon=     1 RMS=1.55D-02 Max=2.94D-01 NDo=     1
 AX will form     1 AO Fock derivatives at one time.
 LinEq1:  Iter=  1 NonCon=     1 RMS=5.71D-03 Max=1.04D-01 NDo=     1
 LinEq1:  Iter=  2 NonCon=     1 RMS=3.86D-03 Max=4.51D-02 NDo=     1
 LinEq1:  Iter=  3 NonCon=     1 RMS=1.24D-03 Max=2.56D-02 NDo=     1
 LinEq1:  Iter=  4 NonCon=     1 RMS=7.65D-04 Max=1.78D-02 NDo=     1
 LinEq1:  Iter=  5 NonCon=     1 RMS=3.26D-04 Max=6.23D-03 NDo=     1
 LinEq1:  Iter=  6 NonCon=     1 RMS=1.58D-04 Max=2.83D-03 NDo=     1
 LinEq1:  Iter=  7 NonCon=     1 RMS=5.70D-05 Max=8.63D-04 NDo=     1
 LinEq1:  Iter=  8 NonCon=     1 RMS=1.11D-05 Max=1.10D-04 NDo=     1
 LinEq1:  Iter=  9 NonCon=     1 RMS=3.55D-06 Max=7.55D-05 NDo=     1
 LinEq1:  Iter= 10 NonCon=     1 RMS=1.48D-06 Max=2.21D-05 NDo=     1
 LinEq1:  Iter= 11 NonCon=     1 RMS=4.10D-07 Max=5.64D-06 NDo=     1
 LinEq1:  Iter= 12 NonCon=     1 RMS=7.76D-08 Max=6.34D-07 NDo=     1
 LinEq1:  Iter= 13 NonCon=     1 RMS=1.21D-08 Max=2.10D-07 NDo=     1
 LinEq1:  Iter= 14 NonCon=     1 RMS=3.21D-09 Max=7.04D-08 NDo=     1
 LinEq1:  Iter= 15 NonCon=     1 RMS=2.12D-09 Max=4.24D-08 NDo=     1
 LinEq1:  Iter= 16 NonCon=     1 RMS=5.20D-10 Max=1.19D-08 NDo=     1
 LinEq1:  Iter= 17 NonCon=     1 RMS=7.80D-11 Max=1.60D-09 NDo=     1
 LinEq1:  Iter= 18 NonCon=     0 RMS=1.90D-11 Max=2.55D-10 NDo=     1
 Linear equations converged to 1.000D-10 1.000D-09 after    18 iterations.
 End of Minotr F.D. properties file   721 does not exist.
 End of Minotr F.D. properties file   722 does not exist.
 End of Minotr F.D. properties file   788 does not exist.
 Calling FoFJK, ICntrl=  10005127 FMM=F ISym2X=0 I1Cent= 0 IOpClX= 0 NMat=1 NMatS=1 NMatT=0.
 ***** Axes restored to original set *****
 -------------------------------------------------------------------
 Center     Atomic                   Forces (Hartrees/Bohr)
 Number     Number              X              Y              Z
 -------------------------------------------------------------------
      1        6           0.004909651    0.001927233    0.000665937
      2        6           0.001060204   -0.001698688   -0.001542508
      3        6          -0.001003026   -0.000897876   -0.000544271
      4        6           0.000503938    0.000198358    0.000078866
      5        6          -0.001441727   -0.000063248    0.000201078
      6        6          -0.000728369    0.001817076    0.001594127
      7        8          -0.001822848   -0.000716513   -0.000244196
      8        1          -0.000410222   -0.000160919   -0.000055982
      9        1           0.000375888    0.001382597    0.001042687
     10        1          -0.001718751   -0.000004571    0.000290198
     11        1          -0.001152780   -0.001107357   -0.000688190
     12        1           0.001428041   -0.000676093   -0.000797747
 -------------------------------------------------------------------
 Cartesian Forces:  Max     0.004909651 RMS     0.001312217

 GradGradGradGradGradGradGradGradGradGradGradGradGradGradGradGradGradGrad
 Berny optimization.
 Using GEDIIS/GDIIS optimizer.
 FormGI is forming the generalized inverse of G from B-inverse, IUseBI=4.
 Internal  Forces:  Max     0.002826411 RMS     0.000992842
 Search for a local minimum.
 Step number   2 out of a maximum of   64
 All quantities printed in internal units (Hartrees-Bohrs-Radians)
 Mixed Optimization -- En-DIIS/RFO-DIIS
 Update second derivatives using D2CorX and points    1    2
 DE= -2.63D-03 DEPred=-2.70D-03 R= 9.76D-01
 TightC=F SS=  1.41D+00  RLast= 1.30D-01 DXNew= 5.0454D-01 3.9146D-01
 Trust test= 9.76D-01 RLast= 1.30D-01 DXMaxT set to 3.91D-01
 ITU=  1  0
 Use linear search instead of GDIIS.
     Eigenvalues ---    0.01541   0.01685   0.01877   0.01940   0.02073
     Eigenvalues ---    0.02078   0.02132   0.02179   0.02193   0.15374
     Eigenvalues ---    0.16000   0.16000   0.16000   0.16083   0.21808
     Eigenvalues ---    0.22000   0.23934   0.25000   0.34648   0.34655
     Eigenvalues ---    0.34955   0.34965   0.35091   0.37004   0.38476
     Eigenvalues ---    0.43800   0.43846   0.46363   0.52622   0.74421
 RFO step:  Lambda=-2.06019231D-04 EMin= 1.54128223D-02
 Quartic linear search produced a step of -0.01418.
 Iteration  1 RMS(Cart)=  0.00659653 RMS(Int)=  0.00003795
 Iteration  2 RMS(Cart)=  0.00003909 RMS(Int)=  0.00000033
 Iteration  3 RMS(Cart)=  0.00000000 RMS(Int)=  0.00000033
 Variable       Old X    -DE/DX   Delta X   Delta X   Delta X     New X
                                 (Linear)    (Quad)   (Total)
    R1        2.73952   0.00183  -0.00022   0.00560   0.00538   2.74490
    R2        2.73955   0.00182  -0.00022   0.00558   0.00536   2.74491
    R3        2.37222  -0.00197   0.00041  -0.00411  -0.00369   2.36853
    R4        2.58038   0.00282   0.00055   0.00373   0.00428   2.58466
    R5        2.05632  -0.00078   0.00001  -0.00225  -0.00224   2.05408
    R6        2.65376  -0.00025  -0.00008  -0.00040  -0.00048   2.65327
    R7        2.06120   0.00011   0.00002   0.00024   0.00026   2.06147
    R8        2.65379  -0.00026  -0.00008  -0.00042  -0.00050   2.65329
    R9        2.05690   0.00044  -0.00002   0.00134   0.00132   2.05822
   R10        2.58036   0.00283   0.00055   0.00374   0.00429   2.58465
   R11        2.06120   0.00011   0.00002   0.00025   0.00027   2.06147
   R12        2.05632  -0.00078   0.00001  -0.00225  -0.00224   2.05408
    A1        2.04706  -0.00051  -0.00081   0.00168   0.00088   2.04793
    A2        2.11808   0.00025   0.00040  -0.00085  -0.00045   2.11763
    A3        2.11805   0.00025   0.00040  -0.00083  -0.00043   2.11762
    A4        2.10203  -0.00005   0.00051  -0.00183  -0.00131   2.10072
    A5        2.06410  -0.00161  -0.00034  -0.00882  -0.00916   2.05494
    A6        2.11705   0.00166  -0.00017   0.01064   0.01047   2.12753
    A7        2.11057  -0.00015   0.00020  -0.00182  -0.00162   2.10895
    A8        2.08873   0.00187  -0.00018   0.01224   0.01206   2.10079
    A9        2.08389  -0.00172  -0.00002  -0.01042  -0.01044   2.07345
   A10        2.09413   0.00089  -0.00063   0.00561   0.00498   2.09912
   A11        2.09453  -0.00045   0.00031  -0.00281  -0.00250   2.09204
   A12        2.09452  -0.00045   0.00031  -0.00280  -0.00249   2.09203
   A13        2.11055  -0.00015   0.00020  -0.00181  -0.00161   2.10894
   A14        2.08387  -0.00172  -0.00002  -0.01040  -0.01042   2.07344
   A15        2.08877   0.00186  -0.00018   0.01221   0.01203   2.10080
   A16        2.10204  -0.00005   0.00051  -0.00183  -0.00132   2.10072
   A17        2.06407  -0.00161  -0.00034  -0.00880  -0.00915   2.05492
   A18        2.11708   0.00166  -0.00017   0.01063   0.01047   2.12754
    D1        0.00011   0.00000   0.00001   0.00001   0.00002   0.00012
    D2       -3.14154   0.00000  -0.00000   0.00007   0.00007  -3.14147
    D3       -3.14138  -0.00000   0.00000  -0.00025  -0.00025   3.14156
    D4        0.00016  -0.00000  -0.00000  -0.00019  -0.00019  -0.00004
    D5       -0.00015  -0.00000  -0.00000   0.00002   0.00001  -0.00014
    D6        3.14134   0.00000  -0.00001   0.00014   0.00014   3.14148
    D7        3.14134   0.00000  -0.00000   0.00028   0.00027  -3.14157
    D8       -0.00035   0.00001  -0.00000   0.00040   0.00040   0.00005
    D9        0.00006  -0.00000  -0.00000  -0.00008  -0.00008  -0.00002
   D10       -3.14154  -0.00000  -0.00001  -0.00005  -0.00006  -3.14159
   D11       -3.14148  -0.00000   0.00000  -0.00014  -0.00013   3.14158
   D12        0.00011  -0.00000  -0.00000  -0.00011  -0.00011   0.00000
   D13       -0.00020   0.00000   0.00000   0.00011   0.00011  -0.00008
   D14        3.14149   0.00000  -0.00001   0.00006   0.00005   3.14155
   D15        3.14141   0.00000   0.00001   0.00008   0.00009   3.14150
   D16       -0.00009   0.00000  -0.00000   0.00003   0.00003  -0.00006
   D17        0.00015  -0.00000  -0.00000  -0.00008  -0.00008   0.00006
   D18       -3.14141  -0.00000  -0.00000  -0.00012  -0.00012  -3.14153
   D19       -3.14154   0.00000   0.00001  -0.00003  -0.00002  -3.14157
   D20        0.00009  -0.00000   0.00001  -0.00007  -0.00006   0.00003
   D21        0.00003   0.00000   0.00000   0.00002   0.00002   0.00005
   D22       -3.14147  -0.00000   0.00000  -0.00011  -0.00011  -3.14157
   D23        3.14158   0.00000   0.00001   0.00005   0.00006  -3.14155
   D24        0.00009  -0.00000   0.00001  -0.00008  -0.00007   0.00002
         Item               Value     Threshold  Converged?
 Maximum Force            0.002826     0.000450     NO 
 RMS     Force            0.000993     0.000300     NO 
 Maximum Displacement     0.026732     0.001800     NO 
 RMS     Displacement     0.006590     0.001200     NO 
 Predicted change in Energy=-1.036072D-04
 GradGradGradGradGradGradGradGradGradGradGradGradGradGradGradGradGradGrad

                          Input orientation:                          
 ---------------------------------------------------------------------
 Center     Atomic      Atomic             Coordinates (Angstroms)
 Number     Number       Type             X           Y           Z
 ---------------------------------------------------------------------
      1          6           0       34.295906   30.586410   30.377551
      2          6           0       34.040598   29.448366   29.511793
      3          6           0       32.768236   28.972438   29.352704
      4          6           0       31.687367   29.570979   30.019663
      5          6           0       31.899052   30.672610   30.864045
      6          6           0       33.154904   31.180815   31.051853
      7          8           0       35.454475   31.037382   30.536546
      8          1           0       30.680582   29.179101   29.881498
      9          1           0       34.889829   28.998390   29.004020
     10          1           0       32.576413   28.117751   28.702523
     11          1           0       31.042081   31.118981   31.370384
     12          1           0       33.338558   32.032777   31.701420
 ---------------------------------------------------------------------
                    Distance matrix (angstroms):
                    1          2          3          4          5
     1  C    0.000000
     2  C    1.452537   0.000000
     3  C    2.447242   1.367743   0.000000
     4  C    2.821996   2.410531   1.404052   0.000000
     5  C    2.447247   2.813108   2.435203   1.404060   0.000000
     6  C    1.452544   2.481454   2.813102   2.410530   1.367739
     7  O    1.253370   2.360962   3.589060   4.075366   3.589060
     8  H    3.911158   3.391001   2.163476   1.089161   2.163478
     9  H    2.182004   1.086971   2.150212   3.408101   3.899673
    10  H    3.443349   2.137590   1.090881   2.153400   3.414425
    11  H    3.443360   3.903385   3.414424   2.153405   1.090883
    12  H    2.181999   3.459264   3.899668   3.408107   2.150216
                    6          7          8          9         10
     6  C    0.000000
     7  O    2.360962   0.000000
     8  H    3.390996   5.164528   0.000000
     9  H    3.459272   2.612460   4.303531   0.000000
    10  H    3.903378   4.491227   2.471967   2.493655   0.000000
    11  H    2.137593   4.491232   2.471963   4.990165   4.298726
    12  H    1.086971   2.612441   4.303536   4.346253   4.990158
                   11         12
    11  H    0.000000
    12  H    2.493675   0.000000
 Stoichiometry    C6H5O(1-)
 Framework group  C1[X(C6H5O)]
 Deg. of freedom    30
 Full point group                 C1      NOp   1
 Largest Abelian subgroup         C1      NOp   1
 Largest concise Abelian subgroup C1      NOp   1
                         Standard orientation:                         
 ---------------------------------------------------------------------
 Center     Atomic      Atomic             Coordinates (Angstroms)
 Number     Number       Type             X           Y           Z
 ---------------------------------------------------------------------
      1          6           0        1.043415   -0.000003   -0.000053
      2          6           0        0.288122   -1.240727    0.000019
      3          6           0       -1.079426   -1.217600    0.000015
      4          6           0       -1.778582   -0.000003   -0.000038
      5          6           0       -1.079426    1.217604    0.000009
      6          6           0        0.288117    1.240727    0.000032
      7          8           0        2.296785    0.000003   -0.000011
      8          1           0       -2.867743    0.000000   -0.000081
      9          1           0        0.846807   -2.173131    0.000075
     10          1           0       -1.646735   -2.149363    0.000070
     11          1           0       -1.646744    2.149363    0.000031
     12          1           0        0.846818    2.173122    0.000087
 ---------------------------------------------------------------------
 Rotational constants (GHZ):           5.5318725           2.8022556           1.8600291
 Standard basis: 6-31+G(d) (6D, 7F)
 There are   143 symmetry adapted cartesian basis functions of A   symmetry.
 There are   143 symmetry adapted basis functions of A   symmetry.
   143 basis functions,   244 primitive gaussians,   143 cartesian basis functions
    25 alpha electrons       25 beta electrons
       nuclear repulsion energy       260.7031113590 Hartrees.
 NAtoms=   12 NActive=   12 NUniq=   12 SFac= 1.00D+00 NAtFMM=   60 NAOKFM=F Big=F
 Integral buffers will be    131072 words long.
 Raffenetti 1 integral format.
 Two-electron integral symmetry is turned on.
 One-electron integrals computed using PRISM.
 NBasis=   143 RedAO= T EigKep=  5.94D-06  NBF=   143
 NBsUse=   143 1.00D-06 EigRej= -1.00D+00 NBFU=   143
 Initial guess from the checkpoint file:  "phenolate_camb3lyp_tddft.chk"
 B after Tr=     0.000000   -0.000000    0.000000
         Rot=    1.000000   -0.000000   -0.000000    0.000000 Ang=   0.00 deg.
 ExpMin= 4.38D-02 ExpMax= 5.48D+03 ExpMxC= 8.25D+02 IAcc=2 IRadAn=         4 AccDes= 0.00D+00
 Harris functional with IExCor=20419 and IRadAn=       4 diagonalized for initial guess.
 HarFok:  IExCor=20419 AccDes= 0.00D+00 IRadAn=         4 IDoV= 1 UseB2=F ITyADJ=14
 ICtDFT=  3500011 ScaDFX=  1.000000  1.000000  1.000000  1.000000
 FoFCou: FMM=F IPFlag=           0 FMFlag=      100000 FMFlg1=           0
         NFxFlg=           0 DoJE=T BraDBF=F KetDBF=T FulRan=T
         wScrn=  0.000000 ICntrl=       500 IOpCl=  0 I1Cent=   200000004 NGrid=           0
         NMat0=    1 NMatS0=      1 NMatT0=    0 NMatD0=    1 NMtDS0=    0 NMtDT0=    0
 Petite list used in FoFCou.
 Keep R1 ints in memory in canonical form, NReq=121488636.
 Requested convergence on RMS density matrix=1.00D-08 within 128 cycles.
 Requested convergence on MAX density matrix=1.00D-06.
 Requested convergence on             energy=1.00D-06.
 No special actions if energy rises.
 SCF Done:  E(RCAM-B3LYP) =  -306.753950217     A.U. after   11 cycles
            NFock= 11  Conv=0.60D-08     -V/T= 2.0089
 DoSCS=F DFT=T ScalE2(SS,OS)=  1.000000  1.000000
 ExpMin= 4.38D-02 ExpMax= 5.48D+03 ExpMxC= 8.25D+02 IAcc=3 IRadAn=         5 AccDes= 0.00D+00
 HarFok:  IExCor=  205 AccDes= 0.00D+00 IRadAn=         5 IDoV=-2 UseB2=F ITyADJ=14
 ICtDFT= 12500011 ScaDFX=  1.000000  1.000000  1.000000  1.000000
 Range of M.O.s used for correlation:     8   143
 NBasis=   143 NAE=    25 NBE=    25 NFC=     7 NFV=     0
 NROrb=    136 NOA=    18 NOB=    18 NVA=   118 NVB=   118

 **** Warning!!: The largest alpha MO coefficient is  0.10735621D+03

 Keep R1, R2, and R3 ints in memory in canonical form, NReq=337753104.
 Orbital symmetries:
       Occupied  (A) (A) (A) (A) (A) (A) (A) (A) (A) (A) (A) (A)
                 (A) (A) (A) (A) (A) (A) (A) (A) (A) (A) (A) (A)
                 (A)
       Virtual   (A) (A) (A) (A) (A) (A) (A) (A) (A) (A) (A) (A)
                 (A) (A) (A) (A) (A) (A) (A) (A) (A) (A) (A) (A)
                 (A) (A) (A) (A) (A) (A) (A) (A) (A) (A) (A) (A)
                 (A) (A) (A) (A) (A) (A) (A) (A) (A) (A) (A) (A)
                 (A) (A) (A) (A) (A) (A) (A) (A) (A) (A) (A) (A)
                 (A) (A) (A) (A) (A) (A) (A) (A) (A) (A) (A) (A)
                 (A) (A) (A) (A) (A) (A) (A) (A) (A) (A) (A) (A)
                 (A) (A) (A) (A) (A) (A) (A) (A) (A) (A) (A) (A)
                 (A) (A) (A) (A) (A) (A) (A) (A) (A) (A) (A) (A)
                 (A) (A) (A) (A) (A) (A) (A) (A) (A) (A)
 Generating guess from densities on rwf.
 Convergence on wavefunction:    0.000001000000000
 Iteration     1 Dimension     3 NMult     0 NNew      3
 CISAX will form     3 AO SS matrices at one time.
 Iteration     2 Dimension     6 NMult     3 NNew      3
 Iteration     3 Dimension     9 NMult     6 NNew      3
 Iteration     4 Dimension    12 NMult     9 NNew      3
 Iteration     5 Dimension    15 NMult    12 NNew      3
 Iteration     6 Dimension    18 NMult    15 NNew      3
 Iteration     7 Dimension    21 NMult    18 NNew      3
 Iteration     8 Dimension    24 NMult    21 NNew      3
 Iteration     9 Dimension    27 NMult    24 NNew      3
 Iteration    10 Dimension    30 NMult    27 NNew      3
 Iteration    11 Dimension    32 NMult    30 NNew      2
 Iteration    12 Dimension    33 NMult    32 NNew      1
 Iteration    13 Dimension    34 NMult    33 NNew      1
 ***********************************************************************
 Excited states from <AA,BB:AA,BB> singles matrix:
 ***********************************************************************
 
 Ground to excited state transition densities written to RWF  633
 Ground to excited state transition electric dipole moments (Au):
       state          X           Y           Z        Dip. S.      Osc.
         1        -0.0001      0.0000     -0.1076      0.0116      0.0010
         2        -0.0000      0.0000     -0.0000      0.0000      0.0000
         3        -0.0001      0.0000      0.4148      0.1720      0.0168
 Ground to excited state transition velocity dipole moments (Au):
       state          X           Y           Z        Dip. S.      Osc.
         1         0.0000     -0.0000      0.0047      0.0000      0.0001
         2        -0.0000     -0.0000      0.0000      0.0000      0.0000
         3         0.0000     -0.0000     -0.0305      0.0009      0.0042
 Ground to excited state transition magnetic dipole moments (Au):
       state          X           Y           Z
         1         0.0000      0.2834      0.0000
         2        -0.1426     -0.0000      0.0000
         3         0.0000     -0.0808     -0.0000
 Ground to excited state transition velocity quadrupole moments (Au):
       state          XX          YY          ZZ          XY          XZ          YZ
         1         0.0000     -0.0000     -0.0000     -0.0000     -0.2701      0.0000
         2         0.0000     -0.0000     -0.0000      0.0000     -0.0000     -0.0720
         3         0.0000     -0.0000     -0.0000     -0.0000      0.1612      0.0000
 <0|del|b> * <b|rxdel|0> + <0|del|b> * <b|delr+rdel|0>
 Rotatory Strengths (R) in cgs (10**-40 erg-esu-cm/Gauss)
       state          XX          YY          ZZ    R(velocity)    E-M Angle
         1        -0.0014      0.0002     -0.0000     -0.0004       90.00
         2         0.0000      0.0004      0.0001      0.0002       90.00
         3         0.0010      0.0005     -0.0001      0.0005       90.00
 1/2[<0|r|b>*<b|rxdel|0> + (<0|rxdel|b>*<b|r|0>)*]
 Rotatory Strengths (R) in cgs (10**-40 erg-esu-cm/Gauss)
       state          XX          YY          ZZ     R(length)
         1         0.0000     -0.0030      0.0010     -0.0007
         2        -0.0000      0.0000      0.0000     -0.0000
         3         0.0000      0.0001      0.0022      0.0008
  1/2[<0|del|b>*<b|r|0> + (<0|r|b>*<b|del|0>)*] (Au)
       state          X           Y           Z        Dip. S.   Osc.(frdel)
         1        -0.0000     -0.0000     -0.0005      0.0005      0.0003
         2         0.0000     -0.0000     -0.0000      0.0000      0.0000
         3        -0.0000     -0.0000     -0.0127      0.0127      0.0084

 Excitation energies and oscillator strengths:
 
 Excited State   1:      Singlet-A      3.4070 eV  363.91 nm  f=0.0010  <S**2>=0.000
      25 -> 26        -0.69351
 This state for optimization and/or second-order correction.
 Total Energy, E(CIS/TDA) =  -306.628743930    
 Copying the excited state density for this state as the 1-particle RhoCI density.
 
 Excited State   2:      Singlet-A      3.7910 eV  327.05 nm  f=0.0000  <S**2>=0.000
      25 -> 27        -0.69289
      25 -> 29        -0.10453
 
 Excited State   3:      Singlet-A      3.9894 eV  310.78 nm  f=0.0168  <S**2>=0.000
      25 -> 28         0.66406
      25 -> 30        -0.19729
 SavETr:  write IOETrn=   770 NScale= 10 NData=  16 NLR=1 NState=    3 LETran=      64.
          IDoAtm=111111111111
          Differentiating once with respect to electric field.
                with respect to dipole field.
          Differentiating once with respect to nuclear coordinates.
 Keep R1 ints in memory in canonical form, NReq=121497196.
          There are     1 degrees of freedom in the 1st order CPHF.  IDoFFX=0 NUNeed=     1.
 LinEq1:  Iter=  0 NonCon=     1 RMS=1.54D-02 Max=2.87D-01 NDo=     1
 AX will form     1 AO Fock derivatives at one time.
 LinEq1:  Iter=  1 NonCon=     1 RMS=5.67D-03 Max=1.03D-01 NDo=     1
 LinEq1:  Iter=  2 NonCon=     1 RMS=3.84D-03 Max=4.45D-02 NDo=     1
 LinEq1:  Iter=  3 NonCon=     1 RMS=1.25D-03 Max=2.57D-02 NDo=     1
 LinEq1:  Iter=  4 NonCon=     1 RMS=7.70D-04 Max=1.78D-02 NDo=     1
 LinEq1:  Iter=  5 NonCon=     1 RMS=3.29D-04 Max=6.30D-03 NDo=     1
 LinEq1:  Iter=  6 NonCon=     1 RMS=1.59D-04 Max=2.82D-03 NDo=     1
 LinEq1:  Iter=  7 NonCon=     1 RMS=5.74D-05 Max=8.72D-04 NDo=     1
 LinEq1:  Iter=  8 NonCon=     1 RMS=1.11D-05 Max=1.06D-04 NDo=     1
 LinEq1:  Iter=  9 NonCon=     1 RMS=3.77D-06 Max=7.86D-05 NDo=     1
 LinEq1:  Iter= 10 NonCon=     1 RMS=1.58D-06 Max=2.39D-05 NDo=     1
 LinEq1:  Iter= 11 NonCon=     1 RMS=4.10D-07 Max=5.52D-06 NDo=     1
 LinEq1:  Iter= 12 NonCon=     1 RMS=7.77D-08 Max=6.41D-07 NDo=     1
 LinEq1:  Iter= 13 NonCon=     1 RMS=1.20D-08 Max=2.11D-07 NDo=     1
 LinEq1:  Iter= 14 NonCon=     1 RMS=2.53D-09 Max=4.03D-08 NDo=     1
 LinEq1:  Iter= 15 NonCon=     1 RMS=1.48D-09 Max=3.78D-08 NDo=     1
 LinEq1:  Iter= 16 NonCon=     1 RMS=5.13D-10 Max=1.15D-08 NDo=     1
 LinEq1:  Iter= 17 NonCon=     1 RMS=7.71D-11 Max=1.57D-09 NDo=     1
 LinEq1:  Iter= 18 NonCon=     0 RMS=1.28D-11 Max=1.57D-10 NDo=     1
 Linear equations converged to 1.000D-10 1.000D-09 after    18 iterations.
 End of Minotr F.D. properties file   721 does not exist.
 End of Minotr F.D. properties file   722 does not exist.
 End of Minotr F.D. properties file   788 does not exist.
 Calling FoFJK, ICntrl=  10005127 FMM=F ISym2X=0 I1Cent= 0 IOpClX= 0 NMat=1 NMatS=1 NMatT=0.
 ***** Axes restored to original set *****
 -------------------------------------------------------------------
 Center     Atomic                   Forces (Hartrees/Bohr)
 Number     Number              X              Y              Z
 -------------------------------------------------------------------
      1        6           0.001332369    0.000507046    0.000200814
      2        6          -0.001028060   -0.000639652   -0.000340165
      3        6           0.000512046   -0.000101316   -0.000170409
      4        6           0.000106886    0.000043903    0.000017653
      5        6           0.000254751    0.000397132    0.000271861
      6        6          -0.001231612   -0.000231992    0.000018992
      7        8          -0.000220380   -0.000081800   -0.000035289
      8        1           0.000011834    0.000003765    0.000001906
      9        1           0.000337589    0.000381813    0.000245601
     10        1          -0.000379551    0.000008679    0.000072043
     11        1          -0.000245229   -0.000252304   -0.000158280
     12        1           0.000549357   -0.000035275   -0.000124725
 -------------------------------------------------------------------
 Cartesian Forces:  Max     0.001332369 RMS     0.000435591

 GradGradGradGradGradGradGradGradGradGradGradGradGradGradGradGradGradGrad
 Berny optimization.
 Using GEDIIS/GDIIS optimizer.
 FormGI is forming the generalized inverse of G from B-inverse, IUseBI=4.
 Internal  Forces:  Max     0.000662728 RMS     0.000226885
 Search for a local minimum.
 Step number   3 out of a maximum of   64
 All quantities printed in internal units (Hartrees-Bohrs-Radians)
 Mixed Optimization -- En-DIIS/RFO-DIIS
 Swapping is turned off.
 Update second derivatives using D2CorX and points    1    2    3
 DE= -1.27D-04 DEPred=-1.04D-04 R= 1.22D+00
 TightC=F SS=  1.41D+00  RLast= 3.26D-02 DXNew= 6.5835D-01 9.7796D-02
 Trust test= 1.22D+00 RLast= 3.26D-02 DXMaxT set to 3.91D-01
 ITU=  1  1  0
     Eigenvalues ---    0.01541   0.01684   0.01881   0.01945   0.02073
     Eigenvalues ---    0.02078   0.02132   0.02180   0.02194   0.11409
     Eigenvalues ---    0.16000   0.16000   0.16000   0.16132   0.21737
     Eigenvalues ---    0.22000   0.24269   0.25000   0.34647   0.34654
     Eigenvalues ---    0.34965   0.35029   0.35130   0.36406   0.38483
     Eigenvalues ---    0.43813   0.43826   0.46361   0.54793   0.74714
 En-DIIS/RFO-DIIS/Sim-DIIS IScMMF=       -3 using points:     3    2
 RFO step:  Lambda=-2.12822355D-05.
 DidBck=F Rises=F RFO-DIIS coefs:    1.37548   -0.37548
 Iteration  1 RMS(Cart)=  0.00237618 RMS(Int)=  0.00000590
 Iteration  2 RMS(Cart)=  0.00000609 RMS(Int)=  0.00000019
 Iteration  3 RMS(Cart)=  0.00000000 RMS(Int)=  0.00000019
 Variable       Old X    -DE/DX   Delta X   Delta X   Delta X     New X
                                 (Linear)    (Quad)   (Total)
    R1        2.74490   0.00040   0.00202  -0.00025   0.00177   2.74667
    R2        2.74491   0.00040   0.00201  -0.00025   0.00176   2.74667
    R3        2.36853  -0.00024  -0.00139   0.00047  -0.00091   2.36761
    R4        2.58466  -0.00014   0.00161  -0.00231  -0.00070   2.58396
    R5        2.05408  -0.00001  -0.00084   0.00071  -0.00013   2.05394
    R6        2.65327   0.00002  -0.00018   0.00026   0.00008   2.65335
    R7        2.06147   0.00002   0.00010  -0.00004   0.00006   2.06152
    R8        2.65329   0.00002  -0.00019   0.00025   0.00007   2.65335
    R9        2.05822  -0.00001   0.00049  -0.00047   0.00003   2.05824
   R10        2.58465  -0.00014   0.00161  -0.00231  -0.00070   2.58395
   R11        2.06147   0.00002   0.00010  -0.00005   0.00005   2.06152
   R12        2.05408  -0.00001  -0.00084   0.00071  -0.00013   2.05394
    A1        2.04793  -0.00029   0.00033  -0.00099  -0.00066   2.04728
    A2        2.11763   0.00014  -0.00017   0.00049   0.00032   2.11796
    A3        2.11762   0.00014  -0.00016   0.00049   0.00033   2.11795
    A4        2.10072   0.00016  -0.00049   0.00099   0.00049   2.10121
    A5        2.05494  -0.00066  -0.00344  -0.00181  -0.00525   2.04969
    A6        2.12753   0.00050   0.00393   0.00082   0.00475   2.13228
    A7        2.10895  -0.00015  -0.00061  -0.00062  -0.00123   2.10771
    A8        2.10079   0.00047   0.00453  -0.00019   0.00434   2.10513
    A9        2.07345  -0.00032  -0.00392   0.00081  -0.00311   2.07034
   A10        2.09912   0.00026   0.00187   0.00026   0.00213   2.10125
   A11        2.09204  -0.00013  -0.00094  -0.00013  -0.00107   2.09097
   A12        2.09203  -0.00013  -0.00093  -0.00013  -0.00106   2.09097
   A13        2.10894  -0.00015  -0.00060  -0.00062  -0.00122   2.10772
   A14        2.07344  -0.00032  -0.00391   0.00081  -0.00311   2.07034
   A15        2.10080   0.00047   0.00452  -0.00019   0.00433   2.10513
   A16        2.10072   0.00016  -0.00050   0.00098   0.00049   2.10121
   A17        2.05492  -0.00066  -0.00343  -0.00180  -0.00523   2.04969
   A18        2.12754   0.00050   0.00393   0.00082   0.00475   2.13229
[...]
 ! R3    R(1,7)                  1.2529         -DE/DX =    0.0                 !
 ! R4    R(2,3)                  1.3674         -DE/DX =    0.0                 !
 ! R5    R(2,9)                  1.0869         -DE/DX =    0.0001              !
 ! R6    R(3,4)                  1.4041         -DE/DX =    0.0001              !
 ! R7    R(3,10)                 1.0909         -DE/DX =    0.0                 !
 ! R8    R(4,5)                  1.4041         -DE/DX =    0.0001              !
 ! R9    R(4,8)                  1.0892         -DE/DX =    0.0                 !
 ! R10   R(5,6)                  1.3674         -DE/DX =    0.0                 !
 ! R11   R(5,11)                 1.0909         -DE/DX =    0.0                 !
 ! R12   R(6,12)                 1.0869         -DE/DX =    0.0001              !
 ! A1    A(2,1,6)              117.3003         -DE/DX =    0.0                 !
 ! A2    A(2,1,7)              121.3499         -DE/DX =    0.0                 !
 ! A3    A(6,1,7)              121.3498         -DE/DX =    0.0                 !
 ! A4    A(1,2,3)              120.3904         -DE/DX =    0.0001              !
 ! A5    A(1,2,9)              117.4388         -DE/DX =   -0.0001              !
 ! A6    A(3,2,9)              122.1708         -DE/DX =    0.0                 !
 ! A7    A(2,3,4)              120.7632         -DE/DX =    0.0                 !
 ! A8    A(2,3,10)             120.6152         -DE/DX =    0.0                 !
 ! A9    A(4,3,10)             118.6217         -DE/DX =    0.0                 !
 ! A10   A(3,4,5)              120.3925         -DE/DX =    0.0                 !
 ! A11   A(3,4,8)              119.8038         -DE/DX =    0.0                 !
 ! A12   A(5,4,8)              119.8037         -DE/DX =    0.0                 !
 ! A13   A(4,5,6)              120.7634         -DE/DX =    0.0                 !
 ! A14   A(4,5,11)             118.6216         -DE/DX =    0.0                 !
 ! A15   A(6,5,11)             120.615          -DE/DX =    0.0                 !
 ! A16   A(1,6,5)              120.3902         -DE/DX =    0.0001              !
 ! A17   A(1,6,12)             117.4386         -DE/DX =   -0.0001              !
 ! A18   A(5,6,12)             122.1712         -DE/DX =    0.0                 !
 ! D1    D(6,1,2,3)             -0.0107         -DE/DX =    0.0                 !
 ! D2    D(6,1,2,9)            179.9917         -DE/DX =    0.0                 !
 ! D3    D(7,1,2,3)           -179.9883         -DE/DX =    0.0                 !
 ! D4    D(7,1,2,9)              0.0142         -DE/DX =    0.0                 !
 ! D5    D(2,1,6,5)              0.011          -DE/DX =    0.0                 !
 ! D6    D(2,1,6,12)          -179.9914         -DE/DX =    0.0                 !
 ! D7    D(7,1,6,5)            179.9886         -DE/DX =    0.0                 !
 ! D8    D(7,1,6,12)            -0.0139         -DE/DX =    0.0                 !
 ! D9    D(1,2,3,4)              0.0044         -DE/DX =    0.0                 !
 ! D10   D(1,2,3,10)          -179.9959         -DE/DX =    0.0                 !
 ! D11   D(9,2,3,4)           -179.9982         -DE/DX =    0.0                 !
 ! D12   D(9,2,3,10)             0.0015         -DE/DX =    0.0                 !
 ! D13   D(2,3,4,5)              0.0021         -DE/DX =    0.0                 !
 ! D14   D(2,3,4,8)            179.9994         -DE/DX =    0.0                 !
 ! D15   D(10,3,4,5)          -179.9976         -DE/DX =    0.0                 !
 ! D16   D(10,3,4,8)            -0.0004         -DE/DX =    0.0                 !
 ! D17   D(3,4,5,6)             -0.0018         -DE/DX =    0.0                 !
 ! D18   D(3,4,5,11)           179.9979         -DE/DX =    0.0                 !
 ! D19   D(8,4,5,6)           -179.9991         -DE/DX =    0.0                 !
 ! D20   D(8,4,5,11)             0.0006         -DE/DX =    0.0                 !
 ! D21   D(4,5,6,1)             -0.005          -DE/DX =    0.0                 !
 ! D22   D(4,5,6,12)           179.9976         -DE/DX =    0.0                 !
 ! D23   D(11,5,6,1)           179.9953         -DE/DX =    0.0                 !
 ! D24   D(11,5,6,12)           -0.0021         -DE/DX =    0.0                 !
 --------------------------------------------------------------------------------
 GradGradGradGradGradGradGradGradGradGradGradGradGradGradGradGradGradGrad

 -------------------------------------------------------------------
 Center     Atomic                Nonadiabatic Coup. (Bohr^-1)
 Number     Number              X              Y              Z
 -------------------------------------------------------------------
      1        6          -0.000583617    0.002562471   -0.003221234
      2        6           0.006710926   -0.030756603    0.038464686
      3        6          -0.000364153    0.001613323   -0.002025194
      4        6          -0.012587546    0.057803393   -0.072268715
      5        6          -0.000362785    0.001616010   -0.002022734
      6        6           0.006710743   -0.030760919    0.038459796
      7        8          -0.002672385    0.012393341   -0.015477293
      8        1           0.000774870   -0.003572857    0.004464856
      9        1           0.001015894   -0.004665848    0.005833389
     10        1          -0.000154869    0.000731049   -0.000894741
     11        1          -0.000147161    0.000716649   -0.000907746
     12        1           0.001015955   -0.004665768    0.005833181
 -------------------------------------------------------------------
 Cartesian Nonad. Coup.:  Max     0.072268715 RMS     0.019891596

 ----------------------------------------------------------------------

 Electric dipole moment (input orientation):
 (Debye = 10**-18 statcoulomb cm , SI units = C m)
                  (au)            (Debye)         (10**-30 SI)
   Tot        0.197665D+01      0.502413D+01      0.167587D+02
   x          0.182717D+01      0.464419D+01      0.154914D+02
   y          0.711071D+00      0.180736D+01      0.602871D+01
   z          0.250941D+00      0.637828D+00      0.212757D+01

 Dipole polarizability, Alpha (input orientation).
 (esu units = cm**3 , SI units = C**2 m**2 J**-1)
 Alpha(0;0):
               (au)            (10**-24 esu)      (10**-40 SI)
   iso        0.100053D+04      0.148263D+03      0.164965D+03
   aniso      0.176439D+04      0.261456D+03      0.290909D+03
   xx         0.868614D+03      0.128715D+03      0.143215D+03
   yx        -0.315787D+03     -0.467949D+02     -0.520663D+02
   yy         0.119680D+04      0.177348D+03      0.197326D+03
   zx        -0.374329D+03     -0.554699D+02     -0.617186D+02
   zy         0.876252D+03      0.129847D+03      0.144475D+03
   zz         0.936174D+03      0.138727D+03      0.154354D+03

 ----------------------------------------------------------------------

 Dipole oientation:
     6        -54.44938190         11.38798024         87.98978779
     6        -52.41803715         10.21506355         86.56077105
     6        -52.45571048         10.23640963         83.97717479
     6        -54.44970692         11.38753816         82.65840830
     6        -56.44345554         12.53903548         83.97723639
     6        -56.48072274         12.56097598         86.56082756
     8        -54.44899216         11.38860240         90.35740248
     1        -54.44986283         11.38732673         80.60016488
     1        -50.89664832          9.33684244         87.62509624
     1        -50.93479480          9.35807064         82.89772256
     1        -57.96450472         13.41719430         82.89782481
     1        -58.00184461         13.43960012         87.62520217

 Electric dipole moment (dipole orientation):
 (Debye = 10**-18 statcoulomb cm , SI units = C m)
                  (au)            (Debye)         (10**-30 SI)
   Tot        0.197665D+01      0.502413D+01      0.167587D+02
   x          0.000000D+00      0.000000D+00      0.000000D+00
   y          0.000000D+00      0.000000D+00      0.000000D+00
   z          0.197665D+01      0.502413D+01      0.167587D+02

 Dipole polarizability, Alpha (dipole orientation).
 (esu units = cm**3 , SI units = C**2 m**2 J**-1)
 Alpha(0;0):
               (au)            (10**-24 esu)      (10**-40 SI)
   iso        0.100053D+04      0.148263D+03      0.164965D+03
   aniso      0.176439D+04      0.261456D+03      0.290909D+03
   xx         0.164531D+04      0.243810D+03      0.271275D+03
   yx        -0.851838D+03     -0.126229D+03     -0.140449D+03
   yy         0.661947D+03      0.980905D+02      0.109140D+03
   zx         0.590804D-01      0.875482D-02      0.974105D-02
   zy         0.124501D+00      0.184491D-01      0.205274D-01
   zz         0.694335D+03      0.102890D+03      0.114480D+03

 ----------------------------------------------------------------------
 Unable to Open any file for archive entry.
 1\1\GINC-NODE22\Freq\RCAM-B3LYP TDA-FC\6-31+G(d)\C6H5O1(1-)\TJZ21\06-N
 ov-2017\0\\#N Geom=AllCheck Guess=TCheck SCRF=Check GenChk RCAM-B3LYP 
 TDA(FC,Read)/6-31+G(d) Freq\\pCT- Geometry Optimization\\-1,1\C,34.296
 1958375,30.5863781628,30.3777586279\C,34.0402291575,29.4477527946,29.5
 113868921\C,32.768285993,28.9718095728,29.3521840567\C,31.688329949,29
 .5713175741,30.0198364679\C,31.8985516849,30.6730634383,30.8644926535\
 C,33.1541449478,31.180983194,31.0521127797\O,35.4542890715,31.03731801
 9,30.5365073327\H,30.6815343064,29.1794268416,29.881678944\H,34.892640
 9357,29.0014364558,29.0058694966\H,32.5720071842,28.1174132376,28.7029
 002809\H,31.0388134431,31.1164256543,31.3688422565\H,33.3429774894,32.
 0326750551,31.7004302115\\Version=ES64L-GDVRevI.10+\State=1-A\HF=-306.
 7538765\RMSD=3.983e-09\RMSF=6.975e-05\ZeroPoint=0.0919599\Thermal=0.09
 72541\Dipole=1.8271653,0.7110712,0.2509409\DipoleDeriv=1.7518659,1.076
 2424,0.733256,1.0758924,-0.1078343,-1.0919004,0.733812,-1.0916605,0.02
 15459,-0.2504723,-1.001714,-0.8787135,-0.6030212,0.4481339,1.0213552,-
 0.5603834,1.0907691,0.272364,1.2758894,-1.0468864,-1.0141477,-0.297350
 5,0.8430692,0.5174411,-0.4148819,0.6480331,0.852171,-1.8945067,0.62882
 82,0.7334609,0.6286855,-2.563356,-1.704013,0.7334077,-1.7039873,-2.060
 8243,0.371578,0.4108968,0.3097128,-0.3384976,1.5324588,1.0754975,-0.28
 98849,0.9446935,1.0672273,-0.5789417,-0.345857,-0.2971246,-0.743904,0.
 6981034,1.2462943,-0.6159336,1.1766574,0.3512107,-0.8688347,-0.4839136
 ,-0.3027821,-0.4839684,0.0050551,0.3956603,-0.3027234,0.3956924,-0.015
 0341,-0.0645919,0.4497044,0.3344332,0.4496212,-0.8038676,-0.553475,0.3
 345157,-0.5534284,-0.7107809,0.0202252,-0.0934806,-0.0700522,0.4900348
 ,-0.2122495,-0.2929825,0.3968962,-0.1913671,-0.1749436,-0.3638682,-0.4
 52456,-0.3054908,0.3256274,-0.3343667,-0.2919334,0.3168783,-0.1564035,
 -0.220609,-0.4707608,0.4093793,0.4024871,-0.3687081,-0.2529963,-0.1058
 682,-0.2199096,-0.2414058,-0.1950704,0.0724176,0.4492565,0.3549609,-0.
 1344116,-0.25215,-0.2160759,-0.1117931,-0.3175929,-0.1872566\Polar=868
 .6144317,-315.7873703,1196.8042506,-374.3294325,876.2524613,936.174194
 3\PG=C01 [X(C6H5O1)]\NImag=0\\0.73341788,0.09756384,0.45142248,-0.0163
 2212,0.19057355,0.34718086,-0.08246082,0.02169175,0.01833162,0.7746619
 7,0.01627892,-0.17158971,-0.07871832,0.04838014,0.42348124,0.01400486,
 -0.07964695,-0.14294180,-0.07525342,0.23410025,0.32074132,-0.02162525,
 -0.04107043,-0.02916908,-0.36588496,-0.07977244,-0.00932467,0.67693915
 ,-0.02220869,-0.00074069,0.00378081,-0.12833859,-0.13674083,-0.0447073
 8,0.08282240,0.48909214,-0.01410050,0.00704802,0.00749963,-0.04816971,
 -0.05315579,-0.08709229,-0.02909019,0.27335222,0.35311414,0.00658517,0
 .01148186,0.00636867,-0.05286239,-0.01394556,-0.00126918,-0.21257600,0
 .08978289,0.09868270,0.66252497,0.01146995,-0.01518408,-0.00662782,0.0
 2892771,0.02979452,0.01578659,0.01981187,-0.13266560,-0.06302496,0.061
 46804,0.44089218,0.00638467,-0.00662194,-0.01582386,0.03300530,0.02325
 455,0.01662532,0.04271537,-0.07521494,-0.12581376,-0.04224226,0.232007
 30,0.33042948,-0.04611494,-0.00303613,0.00552973,-0.02460680,-0.007533
 59,-0.00158316,0.04688754,0.00849822,-0.00114539,-0.11884284,0.0163530
 4,0.02361864,0.72976500,-0.02187591,0.01792135,0.01863226,-0.01722741,
 -0.01915660,-0.01317316,0.05517279,-0.01392618,-0.02167533,-0.05361746
 ,-0.20405113,-0.10732392,0.04144695,0.44891971,-0.00957012,0.01534904,
 0.01333457,-0.00931743,-0.01486536,-0.00920989,0.03618212,-0.01353593,
 -0.01597089,-0.03234836,-0.11951659,-0.14816643,-0.07137437,0.24838250
 ,0.34046998,-0.12666137,0.05091639,0.04938139,0.02382222,0.01541248,0.
 01035657,-0.03922600,0.00391070,0.01012862,0.00597480,-0.06003163,-0.0
 4838868,-0.37214946,-0.07488396,-0.00432668,0.68798801,0.05632285,-0.1
 3797892,-0.05875606,0.01505108,-0.00277000,-0.01479063,-0.00577590,-0.
 00803039,-0.00626297,-0.01717144,-0.01499532,-0.01202390,-0.12344018,-
 0.13201652,-0.04174907,0.11628872,0.48957460,0.05371880,-0.05781960,-0
 .13235449,0.01006347,-0.01484517,-0.00118613,0.00237658,-0.00796546,-0
 .00572570,-0.01409727,-0.00454675,0.00258273,-0.04317805,-0.05020243,-
 0.08557311,-0.00580772,0.27506474,0.34134815,-0.47263187,-0.15065711,-
 0.04883448,-0.03394682,-0.04725084,-0.02881008,0.01771694,-0.00199009,
 -0.00400760,-0.01180300,-0.00476472,-0.00182092,0.00660768,0.01637971,
 0.01261970,-0.09216589,-0.00943397,0.01158418,0.58337353,-0.15065946,-
 0.13859563,-0.03538175,-0.05503998,-0.02158987,-0.02175348,0.00767979,
 -0.00532170,-0.00867090,-0.00476750,-0.00161626,-0.00015432,0.00671652
 ,0.00313637,-0.00173481,-0.00164414,0.02274976,0.00440414,0.19927185,0
 .13854695,-0.04883158,-0.03538028,-0.08130780,-0.03504063,-0.02311024,
 0.00522344,0.00371942,-0.00698744,-0.00239389,-0.00181843,-0.00015292,
 -0.00018990,0.00488435,-0.00342258,0.00025720,0.01781502,0.00576098,0.
 01910324,0.06241486,0.05443342,0.05972088,-0.00167874,0.00022240,0.000
 62239,-0.00158143,0.00134487,0.00200779,-0.01764019,-0.00384483,0.0016
 3491,-0.29057397,-0.08979185,-0.02914187,0.00492044,-0.00596282,-0.003
 98776,0.00088149,-0.00069994,-0.00005706,0.00142813,0.00018571,-0.0000
 8098,0.30542960,0.00022283,-0.00141622,-0.00187408,0.00122939,0.001063
 96,-0.00237532,0.01171067,0.01367539,0.00137163,-0.08979067,-0.0914023
 3,-0.02110766,-0.02151931,-0.00350189,-0.00658264,-0.00058459,-0.00081
 216,-0.00355960,0.00018550,0.00082301,0.00053717,0.09923631,0.08319080
 ,0.00062190,-0.00187436,-0.00072996,0.00191565,-0.00239563,0.00151575,
 0.01407900,0.00408033,0.01022387,-0.02914302,-0.02110841,-0.05727690,-
 0.01643084,-0.00929062,0.00484078,0.00003509,-0.00353930,0.00092897,-0
 .00008075,0.00053729,0.00055482,0.03066151,0.02873501,0.04331026,0.006
 45103,-0.00456533,-0.00394202,-0.23010246,0.09125634,0.10665789,-0.017
 56177,0.01138127,0.01349650,-0.00413802,-0.00373221,-0.00083884,-0.000
 08410,0.00021090,0.00000368,-0.00053784,-0.00122484,-0.00040225,0.0010
 7934,0.00108525,0.00020535,0.00038263,0.00109908,0.00071750,0.24280201
 ,0.02051850,-0.00567591,-0.01194248,0.08939242,-0.09969211,-0.06582123
 ,-0.01067971,0.01228716,0.00556768,-0.00137868,0.00194411,-0.00475441,
 -0.00100571,-0.00052887,0.00057717,-0.00123376,-0.00210423,-0.00369055
 ,-0.00038619,0.00194410,0.00380158,-0.00093286,-0.00031432,0.00034747,
 -0.09676435,0.09449982,0.01612563,-0.00757478,-0.00408341,0.10516757,-
 0.06614465,-0.10811117,-0.00415336,0.00172618,0.00975622,0.00104403,-0
 .00434521,0.00452913,-0.00096927,0.00036597,-0.00056993,-0.00041021,-0
 .00369191,-0.00010428,-0.00097217,0.00354484,0.00028099,-0.00090792,-0
 .00000641,-0.00039277,-0.11561678,0.07370130,0.10253977,-0.00208869,-0
 .00034691,0.00211802,-0.00271404,-0.02443762,-0.01792720,-0.06765117,-
 0.03859283,-0.02693073,0.00833240,0.01985210,0.01532392,-0.00215841,0.
 00179447,0.00273702,-0.00185608,-0.00013356,-0.00009354,-0.00088830,-0
 .00144232,-0.00123467,0.00082616,-0.00065778,-0.00123144,0.00140160,0.
 00113174,-0.00032854,0.06645511,-0.00080518,0.00468967,-0.00543826,-0.
 00422015,-0.00207026,-0.00621082,-0.03966029,-0.21648668,-0.13024817,0
 .00431196,-0.00611655,-0.00975293,0.00182824,0.00156796,-0.00331882,-0
 .00001120,-0.00009644,0.00134984,-0.00018413,-0.00061489,0.00062398,-0
 .00302096,-0.00186761,0.00161168,0.00155205,-0.00248962,0.00228406,0.0
 4201461,0.22329045,0.00175064,-0.00551727,0.00694425,-0.00175256,-0.00
 269120,0.00476420,-0.02778255,-0.13043356,-0.14453069,0.00289037,-0.01
 245822,-0.00533350,0.00276481,-0.00331357,0.00218594,0.00000486,0.0013
 7165,-0.00068451,-0.00022983,0.00084191,-0.00064090,-0.00312208,0.0012
 0006,-0.00172086,0.00000766,0.00235780,-0.00379831,0.02706884,0.148185
 50,0.14272558,-0.00020174,-0.00228369,0.00023979,-0.00067125,-0.000939
 26,-0.00094423,0.00131728,-0.00089407,-0.00001903,0.01214471,0.0013241
 6,-0.00016166,-0.22439400,0.08313486,0.09773306,-0.02019260,0.00947380
 ,0.01224313,-0.00153574,0.00032219,0.00028962,-0.00252561,-0.00039534,
 -0.00043776,-0.00005854,0.00036093,0.00017244,-0.00011384,-0.00176355,
 -0.00136094,0.23490115,-0.00182493,0.00325262,-0.00640898,-0.00106239,
 -0.00099791,0.00081144,-0.00092837,-0.00108000,-0.00495629,0.01686646,
 -0.00901968,-0.01425948,0.08420042,-0.09715137,-0.05635219,-0.01074531
 ,0.01123716,0.00556918,-0.00093413,-0.00012214,0.00114849,0.00196808,0
 .00068461,0.00278423,0.00028803,-0.00002028,0.00051605,0.00093275,0.00
 060554,0.00018378,-0.08994808,0.09504625,0.00060669,-0.00633008,0.0064
 9459,-0.00104190,0.00078996,-0.00096793,-0.00004659,-0.00496120,0.0013
 5794,0.01226931,-0.01155547,-0.00624316,0.09858771,-0.05616565,-0.1071
 2291,-0.00392980,0.00205060,0.00893590,-0.00071734,0.00092943,-0.00048
 627,0.00145259,0.00319568,-0.00092126,0.00011373,0.00050339,-0.0003453
 1,0.00079588,0.00065329,0.00055667,-0.10781915,0.06857227,0.10252351,0
 .00700933,0.02008338,0.01567609,-0.00365322,0.00120657,0.00208482,-0.0
 0069556,-0.00052640,-0.00047957,-0.00476584,-0.00088645,0.00154635,0.0
 0016990,-0.02457212,-0.01835086,-0.06587726,-0.03925661,-0.02635028,0.
 00276601,-0.00170791,-0.00232232,0.00013150,-0.00073610,-0.00070683,0.
 00036611,0.00097768,0.00084858,0.00045526,-0.00004141,-0.00023922,0.00
 133018,0.00118747,-0.00027113,0.06276359,-0.00500273,-0.00610497,-0.00
 783887,0.00121605,0.00026757,-0.00221929,0.00068963,-0.00006263,0.0006
 5486,-0.00323990,0.00242013,-0.00404836,-0.00250846,-0.00121284,-0.006
 65330,-0.03739369,-0.22475754,-0.14375834,-0.00023589,0.00066029,0.002
 74783,0.00129590,-0.00012323,0.00011229,-0.00058619,0.00015013,-0.0003
 7543,-0.00011464,-0.00041157,0.00027312,0.00160803,-0.00243481,0.00231
 777,0.04427190,0.23160947,-0.00438887,-0.01220533,-0.00421260,0.002092
 03,-0.00221840,0.00063920,0.00049393,0.00086635,-0.00042457,-0.0003365
 6,-0.00445755,0.00468086,-0.00070415,-0.00281346,0.00552469,-0.0248584
 6,-0.14343413,-0.14727077,-0.00114557,0.00300423,-0.00012182,0.0009185
 0,0.00046614,-0.00033271,-0.00040241,-0.00064771,0.00029908,-0.0002975
 6,0.00026066,-0.00046787,0.00006474,0.00239149,-0.00378178,0.02856438,
 0.15878771,0.14546829\\-0.00012362,-0.00008401,0.00002313,0.00021255,0
 .00000583,-0.00005514,-0.00009579,0.00006416,0.00006521,0.00006913,0.0
 0002574,0.00000944,-0.00000746,-0.00010216,-0.00008323,0.00013336,0.00
 015389,0.00007705,0.00000716,0.00001534,-0.00001278,-0.00001624,-0.000
 00570,-0.00000285,-0.00008512,-0.00000729,0.00000904,-0.00001774,-0.00
 000393,0.00000312,-0.00001368,-0.00001167,-0.00000341,-0.00006255,-0.0
 0005021,-0.00002958\\\@
 The archive entry for this job was punched.


 ERWIN WITH HIS PSI CAN DO
 CALCULATIONS QUITE A FEW.
 BUT ONE THING HAS NOT BEEN SEEN
 JUST WHAT DOES PSI REALLY MEAN.
 -- WALTER HUCKEL, TRANS. BY FELIX BLOCH
 Job cpu time:       0 days  0 hours 38 minutes 59.8 seconds.
 Elapsed time:       0 days  0 hours  2 minutes 31.9 seconds.
 File lengths (MBytes):  RWF=    117 Int=      0 D2E=      0 Chk=      6 Scr=      1
 Normal termination of Gaussian DV at Mon Nov  6 21:20:18 2017.
