************************************************************
This is node28.cluster of cluster Pinconning.
Date: Mon Nov  6 21:01:39 PST 2017
************************************************************
 Set GAUSS_MDEF to "32GB".
 Set GAUSS_PDEF to "16".
 Entering Gaussian System, Link 0=gdv
 Initial command:
 /opt/gaussian/gdv-20170407-i10+/gdv/l1.exe "/tmp/635091.1.16core.q/Gau-23661.inp" -scrdir="/tmp/635091.1.16core.q/"
 Default is to use a total of  16 processors:
                               16 via shared-memory
                                1 via Linda
 Entering Link 1 = /opt/gaussian/gdv-20170407-i10+/gdv/l1.exe PID=     23662.
  
 Copyright (c) 1988-2017, Gaussian, Inc.  All Rights Reserved.
  
 This is the private, development version of
 the Gaussian(R) DV system of programs. It is based on
 the Gaussian(R) 16 system (copyright 2016, Gaussian, Inc.),
 the Gaussian(R) 09 system (copyright 2009, Gaussian, Inc.),
 the Gaussian(R) 03 system (copyright 2003, Gaussian, Inc.),
 the Gaussian(R) 98 system (copyright 1998, Gaussian, Inc.),
 the Gaussian(R) 94 system (copyright 1995, Gaussian, Inc.),
 the Gaussian 92(TM) system (copyright 1992, Gaussian, Inc.),
 the Gaussian 90(TM) system (copyright 1990, Gaussian, Inc.),
 the Gaussian 88(TM) system (copyright 1988, Gaussian, Inc.),
 the Gaussian 86(TM) system (copyright 1986, Carnegie Mellon
 University), and the Gaussian 82(TM) system (copyright 1983,
 Carnegie Mellon University). Gaussian is a federally registered
 trademark of Gaussian, Inc.
  
 This software contains proprietary and confidential information,
 including trade secrets, belonging to Gaussian, Inc.
  
 This software is provided under written license and may be
 used, copied, transmitted, or stored only in accord with that
 written license.
  
 The following legend is applicable only to US Government
 contracts under FAR:
  
                    RESTRICTED RIGHTS LEGEND
  
 Use, reproduction and disclosure by the US Government is
 subject to restrictions as set forth in subparagraphs (a)
 and (c) of the Commercial Computer Software - Restricted
 Rights clause in FAR 52.227-19.
  
 Gaussian, Inc.
 340 Quinnipiac St., Bldg. 40, Wallingford CT 06492
  
  
 ---------------------------------------------------------------
 Warning -- This program may not be used in any manner that
 competes with the business of Gaussian, Inc. or will provide
 assistance to any competitor of Gaussian, Inc.  The licensee
 of this program is prohibited from giving any competitor of
 Gaussian, Inc. access to this program.  By using this program,
 the user acknowledges that Gaussian, Inc. is engaged in the
 business of creating and licensing software in the field of
 computational chemistry and represents and warrants to the
 licensee that it is not a competitor of Gaussian, Inc. and that
 it will not use this program in any manner prohibited above.
 ---------------------------------------------------------------
  

 Cite this work as:
 Gaussian Development Version, Revision I.10+,
 M. J. Frisch, G. W. Trucks, H. B. Schlegel, G. E. Scuseria, 
 M. A. Robb, J. R. Cheeseman, G. Scalmani, V. Barone, 
 G. A. Petersson, H. Nakatsuji, X. Li, M. Caricato, A. V. Marenich, 
 J. Bloino, B. G. Janesko, R. Gomperts, B. Mennucci, H. P. Hratchian, 
 J. V. Ortiz, A. F. Izmaylov, J. L. Sonnenberg, D. Williams-Young, 
 F. Ding, F. Lipparini, F. Egidi, J. Goings, B. Peng, A. Petrone, 
 T. Henderson, D. Ranasinghe, V. G. Zakrzewski, J. Gao, N. Rega, 
 G. Zheng, W. Liang, M. Hada, M. Ehara, K. Toyota, R. Fukuda, 
 J. Hasegawa, M. Ishida, T. Nakajima, Y. Honda, O. Kitao, H. Nakai, 
 T. Vreven, K. Throssell, J. A. Montgomery, Jr., J. E. Peralta, 
 F. Ogliaro, M. J. Bearpark, J. J. Heyd, E. N. Brothers, K. N. Kudin, 
 V. N. Staroverov, T. A. Keith, R. Kobayashi, J. Normand, 
 K. Raghavachari, A. P. Rendell, J. C. Burant, S. S. Iyengar, 
 J. Tomasi, M. Cossi, J. M. Millam, M. Klene, C. Adamo, R. Cammi, 
 J. W. Ochterski, R. L. Martin, K. Morokuma, O. Farkas, 
 J. B. Foresman, and D. J. Fox, Gaussian, Inc., Wallingford CT, 2016.
 
 *******************************************
 Gaussian DV:  ES64L-GDVRevI.10+ 27-Mar-2017
                  6-Nov-2017 
 *******************************************
 %chk=phenolate_camb3lyp_gs
 -----------------------------------
 # CAM-B3LYP/6-31+G* opt freq=saveNM
 -----------------------------------
 1/18=20,19=15,26=3,38=1/1,3;
 2/9=110,12=2,17=6,18=5,40=1/2;
 3/5=1,6=6,7=11,11=2,25=1,30=1,71=1,74=-40/1,2,3;
 4//1;
 5/5=2,38=5/2;
 6/7=2,8=2,9=2,10=2,28=1/1;
 7/92=1/1,2,3,16;
 1/18=20,19=15,26=3/3(2);
 2/9=110/2;
 99//99;
 2/9=110/2;
 3/5=1,6=6,7=11,11=2,25=1,30=1,71=1,74=-40/1,2,3;
 4/5=5,16=3,69=1/1;
 5/5=2,38=5/2;
 7/92=1/1,2,3,16;
 1/18=20,19=15,26=3/3(-5);
 2/9=110/2;
 6/7=2,8=2,9=2,10=2,19=2,28=1/1;
 99/9=1/99;
 --------------------------
 pCT- Geometry Optimization
 --------------------------
 Symbolic Z-matrix:
 Charge = -1 Multiplicity = 1
 C                     34.305    30.614    30.355 
 C                     34.101    29.398    29.577 
 C                     32.768    28.981    29.377 
 C                     31.663    29.603    29.981 
 C                     31.931    30.678    30.888 
 C                     33.218    31.135    31.085 
 O                     35.506    31.118    30.479 
 H                     30.362    29.039    29.771 
 H                     34.939    29.038    29.058 
 H                     32.581    28.148    28.707 
 H                     31.023    31.132    31.397 
 H                     33.431    32.032    31.699 
 
 Add virtual bond connecting atoms H8         and C4         Dist= 2.71D+00.

 GradGradGradGradGradGradGradGradGradGradGradGradGradGradGradGradGradGrad
 Berny optimization.
 Initialization pass.
                           ----------------------------
                           !    Initial Parameters    !
                           ! (Angstroms and Degrees)  !
 --------------------------                            --------------------------
 ! Name  Definition              Value          Derivative Info.                !
 --------------------------------------------------------------------------------
 ! R1    R(1,2)                  1.4579         estimate D2E/DX2                !
 ! R2    R(1,6)                  1.4092         estimate D2E/DX2                !
 ! R3    R(1,7)                  1.3084         estimate D2E/DX2                !
 ! R4    R(2,3)                  1.4109         estimate D2E/DX2                !
 ! R5    R(2,9)                  1.0494         estimate D2E/DX2                !
 ! R6    R(3,4)                  1.4045         estimate D2E/DX2                !
 ! R7    R(3,10)                 1.0852         estimate D2E/DX2                !
 ! R8    R(4,5)                  1.4318         estimate D2E/DX2                !
 ! R9    R(4,8)                  1.4335         estimate D2E/DX2                !
 ! R10   R(5,6)                  1.3799         estimate D2E/DX2                !
 ! R11   R(5,11)                 1.1356         estimate D2E/DX2                !
 ! R12   R(6,12)                 1.1077         estimate D2E/DX2                !
 ! A1    A(2,1,6)              118.4804         estimate D2E/DX2                !
 ! A2    A(2,1,7)              120.0207         estimate D2E/DX2                !
 ! A3    A(6,1,7)              121.1006         estimate D2E/DX2                !
 ! A4    A(1,2,3)              117.0224         estimate D2E/DX2                !
 ! A5    A(1,2,9)              115.9964         estimate D2E/DX2                !
 ! A6    A(3,2,9)              125.6584         estimate D2E/DX2                !
 ! A7    A(2,3,4)              123.4653         estimate D2E/DX2                !
 ! A8    A(2,3,10)             118.4997         estimate D2E/DX2                !
 ! A9    A(4,3,10)             118.0243         estimate D2E/DX2                !
 ! A10   A(3,4,5)              117.2351         estimate D2E/DX2                !
 ! A11   A(3,4,8)              118.4765         estimate D2E/DX2                !
 ! A12   A(5,4,8)              123.9234         estimate D2E/DX2                !
 ! A13   A(4,5,6)              120.9088         estimate D2E/DX2                !
 ! A14   A(4,5,11)             115.7482         estimate D2E/DX2                !
 ! A15   A(6,5,11)             123.3226         estimate D2E/DX2                !
 ! A16   A(1,6,5)              121.5361         estimate D2E/DX2                !
 ! A17   A(1,6,12)             115.9893         estimate D2E/DX2                !
 ! A18   A(5,6,12)             121.7818         estimate D2E/DX2                !
 ! D1    D(6,1,2,3)             13.0834         estimate D2E/DX2                !
 ! D2    D(6,1,2,9)           -179.2906         estimate D2E/DX2                !
 ! D3    D(7,1,2,3)           -174.0796         estimate D2E/DX2                !
 ! D4    D(7,1,2,9)             -6.4535         estimate D2E/DX2                !
 ! D5    D(2,1,6,5)            -12.1653         estimate D2E/DX2                !
 ! D6    D(2,1,6,12)           177.2134         estimate D2E/DX2                !
 ! D7    D(7,1,6,5)            175.0783         estimate D2E/DX2                !
 ! D8    D(7,1,6,12)             4.457          estimate D2E/DX2                !
 ! D9    D(1,2,3,4)             -5.8333         estimate D2E/DX2                !
 ! D10   D(1,2,3,10)           172.9562         estimate D2E/DX2                !
 ! D11   D(9,2,3,4)           -172.1205         estimate D2E/DX2                !
 ! D12   D(9,2,3,10)             6.669          estimate D2E/DX2                !
 ! D13   D(2,3,4,5)             -2.7511         estimate D2E/DX2                !
 ! D14   D(2,3,4,8)           -176.0906         estimate D2E/DX2                !
 ! D15   D(10,3,4,5)           178.454          estimate D2E/DX2                !
 ! D16   D(10,3,4,8)             5.1145         estimate D2E/DX2                !
 ! D17   D(3,4,5,6)              4.2142         estimate D2E/DX2                !
 ! D18   D(3,4,5,11)          -177.3783         estimate D2E/DX2                !
 ! D19   D(8,4,5,6)            177.1566         estimate D2E/DX2                !
 ! D20   D(8,4,5,11)            -4.436          estimate D2E/DX2                !
 ! D21   D(4,5,6,1)              3.366          estimate D2E/DX2                !
 ! D22   D(4,5,6,12)           173.4434         estimate D2E/DX2                !
 ! D23   D(11,5,6,1)          -174.9173         estimate D2E/DX2                !
 ! D24   D(11,5,6,12)           -4.8399         estimate D2E/DX2                !
 --------------------------------------------------------------------------------
 Trust Radius=3.00D-01 FncErr=1.00D-07 GrdErr=1.00D-06 EigMax=2.50D+02 EigMin=1.00D-04
 Number of steps in this run=     64 maximum allowed number of steps=    100.
 GradGradGradGradGradGradGradGradGradGradGradGradGradGradGradGradGradGrad

                          Input orientation:                          
 ---------------------------------------------------------------------
 Center     Atomic      Atomic             Coordinates (Angstroms)
 Number     Number       Type             X           Y           Z
 ---------------------------------------------------------------------
      1          6           0       34.305000   30.614000   30.355000
      2          6           0       34.101000   29.398000   29.577000
      3          6           0       32.768000   28.981000   29.377000
      4          6           0       31.663000   29.603000   29.981000
      5          6           0       31.931000   30.678000   30.888000
      6          6           0       33.218000   31.135000   31.085000
      7          8           0       35.506000   31.118000   30.479000
      8          1           0       30.362000   29.039000   29.771000
      9          1           0       34.939000   29.038000   29.058000
     10          1           0       32.581000   28.148000   28.707000
     11          1           0       31.023000   31.132000   31.397000
     12          1           0       33.431000   32.032000   31.699000
 ---------------------------------------------------------------------
                    Distance matrix (angstroms):
                    1          2          3          4          5
     1  C    0.000000
     2  C    1.457929   0.000000
     3  C    2.446537   1.410949   0.000000
     4  C    2.853447   2.479735   1.404537   0.000000
     5  C    2.433939   2.840074   2.421466   1.431816   0.000000
     6  C    1.409223   2.463924   2.785584   2.446194   1.379865
     7  O    1.308355   2.397088   3.643874   4.160754   3.625122
     8  H    4.285899   3.761202   2.438737   1.433456   2.528986
     9  H    2.137274   1.049383   2.195051   3.450120   3.884143
    10  H    3.430632   2.151697   1.085246   2.140753   3.402964
    11  H    3.482185   3.974071   3.428152   2.180022   1.135632
    12  H    2.140312   3.448150   3.890997   3.460836   2.177392
                    6          7          8          9         10
     6  C    0.000000
     7  O    2.366954   0.000000
     8  H    3.778432   5.593232   0.000000
     9  H    3.386440   2.582079   4.632202   0.000000
    10  H    3.870765   4.529515   2.617239   2.544693   0.000000
    11  H    2.217065   4.576047   2.731565   5.019045   4.309028
    12  H    1.107689   2.574766   4.700425   4.267667   4.975944
                   11         12
    11  H    0.000000
    12  H    2.588372   0.000000
 Stoichiometry    C6H5O(1-)
 Framework group  C1[X(C6H5O)]
 Deg. of freedom    30
 Full point group                 C1      NOp   1
 Largest Abelian subgroup         C1      NOp   1
 Largest concise Abelian subgroup C1      NOp   1
                         Standard orientation:                         
 ---------------------------------------------------------------------
 Center     Atomic      Atomic             Coordinates (Angstroms)
 Number     Number       Type             X           Y           Z
 ---------------------------------------------------------------------
      1          6           0        1.035764    0.003479   -0.020649
      2          6           0        0.310293   -1.256136    0.091688
      3          6           0       -1.096488   -1.195918    0.001569
      4          6           0       -1.817276    0.007515   -0.068697
      5          6           0       -1.068950    1.225356    0.014799
      6          6           0        0.309637    1.207706    0.071478
      7          8           0        2.343472    0.004283   -0.061794
      8          1           0       -3.249460   -0.052784   -0.071848
      9          1           0        0.890521   -2.128274    0.029121
     10          1           0       -1.653372   -2.126683   -0.034683
     11          1           0       -1.680612    2.182103    0.001938
     12          1           0        0.907268    2.139360    0.028693
 ---------------------------------------------------------------------
 Rotational constants (GHZ):           5.5872964           2.6779705           1.8141352
 Standard basis: 6-31+G(d) (6D, 7F)
 There are   143 symmetry adapted cartesian basis functions of A   symmetry.
 There are   143 symmetry adapted basis functions of A   symmetry.
   143 basis functions,   244 primitive gaussians,   143 cartesian basis functions
    25 alpha electrons       25 beta electrons
       nuclear repulsion energy       257.0627785586 Hartrees.
 NAtoms=   12 NActive=   12 NUniq=   12 SFac= 1.00D+00 NAtFMM=   60 NAOKFM=F Big=F
 Integral buffers will be    131072 words long.
 Raffenetti 2 integral format.
 Two-electron integral symmetry is turned on.
 One-electron integrals computed using PRISM.
 NBasis=   143 RedAO= T EigKep=  8.13D-06  NBF=   143
 NBsUse=   143 1.00D-06 EigRej= -1.00D+00 NBFU=   143
 ExpMin= 4.38D-02 ExpMax= 5.48D+03 ExpMxC= 8.25D+02 IAcc=3 IRadAn=         5 AccDes= 0.00D+00
 Harris functional with IExCor=20419 and IRadAn=       5 diagonalized for initial guess.
 HarFok:  IExCor=20419 AccDes= 0.00D+00 IRadAn=         5 IDoV= 1 UseB2=F ITyADJ=14
 ICtDFT=  3500011 ScaDFX=  1.000000  1.000000  1.000000  1.000000
 FoFCou: FMM=F IPFlag=           0 FMFlag=      100000 FMFlg1=           0
         NFxFlg=           0 DoJE=T BraDBF=F KetDBF=T FulRan=T
         wScrn=  0.000000 ICntrl=       500 IOpCl=  0 I1Cent=   200000004 NGrid=           0
         NMat0=    1 NMatS0=      1 NMatT0=    0 NMatD0=    1 NMtDS0=    0 NMtDT0=    0
 Petite list used in FoFCou.
 Keep R1 ints in memory in canonical form, NReq=121488636.
 Requested convergence on RMS density matrix=1.00D-08 within 128 cycles.
 Requested convergence on MAX density matrix=1.00D-06.
 Requested convergence on             energy=1.00D-06.
 No special actions if energy rises.
 SCF Done:  E(RCAM-B3LYP) =  -306.703138160     A.U. after   17 cycles
            NFock= 17  Conv=0.84D-09     -V/T= 2.0108

 **********************************************************************

            Population analysis using the SCF Density.

 **********************************************************************

 Orbital symmetries:
       Occupied  (A) (A) (A) (A) (A) (A) (A) (A) (A) (A) (A) (A)
                 (A) (A) (A) (A) (A) (A) (A) (A) (A) (A) (A) (A)
                 (A)
       Virtual   (A) (A) (A) (A) (A) (A) (A) (A) (A) (A) (A) (A)
                 (A) (A) (A) (A) (A) (A) (A) (A) (A) (A) (A) (A)
                 (A) (A) (A) (A) (A) (A) (A) (A) (A) (A) (A) (A)
                 (A) (A) (A) (A) (A) (A) (A) (A) (A) (A) (A) (A)
                 (A) (A) (A) (A) (A) (A) (A) (A) (A) (A) (A) (A)
                 (A) (A) (A) (A) (A) (A) (A) (A) (A) (A) (A) (A)
                 (A) (A) (A) (A) (A) (A) (A) (A) (A) (A) (A) (A)
                 (A) (A) (A) (A) (A) (A) (A) (A) (A) (A) (A) (A)
                 (A) (A) (A) (A) (A) (A) (A) (A) (A) (A) (A) (A)
                 (A) (A) (A) (A) (A) (A) (A) (A) (A) (A)
 The electronic state is 1-A.
 Alpha  occ. eigenvalues --  -18.96979 -10.13319 -10.12745 -10.12167 -10.11375
 Alpha  occ. eigenvalues --  -10.08593 -10.08307  -0.85353  -0.74906  -0.65883
 Alpha  occ. eigenvalues --   -0.61363  -0.51316  -0.47696  -0.38888  -0.35786
 Alpha  occ. eigenvalues --   -0.34680  -0.32200  -0.27872  -0.26921  -0.24447
 Alpha  occ. eigenvalues --   -0.23169  -0.19710  -0.14681  -0.10094  -0.06190
 Alpha virt. eigenvalues --    0.15250   0.16710   0.17502   0.18929   0.19494
 Alpha virt. eigenvalues --    0.19685   0.21368   0.21618   0.22854   0.24382
 Alpha virt. eigenvalues --    0.25231   0.25838   0.26244   0.28314   0.29046
 Alpha virt. eigenvalues --    0.29438   0.29849   0.30411   0.31674   0.31881
 Alpha virt. eigenvalues --    0.33423   0.33496   0.34289   0.35943   0.36843
 Alpha virt. eigenvalues --    0.37959   0.38900   0.40639   0.41402   0.43248
 Alpha virt. eigenvalues --    0.46814   0.48008   0.48837   0.50673   0.51565
 Alpha virt. eigenvalues --    0.52685   0.55381   0.57014   0.60345   0.61775
 Alpha virt. eigenvalues --    0.67096   0.78060   0.80077   0.84112   0.87553
 Alpha virt. eigenvalues --    0.90460   0.93318   0.94009   0.95000   0.95964
 Alpha virt. eigenvalues --    0.96931   0.97326   1.00147   1.02255   1.04137
 Alpha virt. eigenvalues --    1.05916   1.11861   1.13620   1.15735   1.18240
 Alpha virt. eigenvalues --    1.20860   1.21884   1.28931   1.29895   1.33481
 Alpha virt. eigenvalues --    1.36326   1.39166   1.43365   1.44589   1.49097
 Alpha virt. eigenvalues --    1.52780   1.56289   1.59953   1.63043   1.66701
 Alpha virt. eigenvalues --    1.68708   1.70677   1.72772   1.74096   1.76667
 Alpha virt. eigenvalues --    1.91551   1.91772   2.02644   2.08404   2.11491
 Alpha virt. eigenvalues --    2.17620   2.19203   2.21102   2.23610   2.24402
 Alpha virt. eigenvalues --    2.27308   2.33237   2.37608   2.39858   2.40112
 Alpha virt. eigenvalues --    2.49539   2.52979   2.57006   2.59955   2.74855
 Alpha virt. eigenvalues --    2.83212   2.83444   2.85570   2.87010   2.95200
 Alpha virt. eigenvalues --    2.96828   3.00257   3.11465   3.36210   3.38635
 Alpha virt. eigenvalues --    3.56222   4.42545   4.46168   4.47900   4.56385
 Alpha virt. eigenvalues --    4.62082   4.72022   4.96024
          Condensed to atoms (all electrons):
               1          2          3          4          5          6
     1  C    9.495552  -3.135584   2.459223  -1.900458   2.859754  -4.527975
     2  C   -3.135584  13.011840  -3.398097   1.650097  -1.158641  -0.794451
     3  C    2.459223  -3.398097   8.183027  -1.497156   1.542937  -1.285980
     4  C   -1.900458   1.650097  -1.497156   7.151845  -1.577962   1.995200
     5  C    2.859754  -1.158641   1.542937  -1.577962   8.387807  -4.055363
     6  C   -4.527975  -0.794451  -1.285980   1.995200  -4.055363  14.785873
     7  O    0.650733  -0.303625   0.030627  -0.003039   0.030672  -0.309155
     8  H    0.025858  -0.040864   0.143956   0.091914   0.130389  -0.050071
     9  H   -0.011036   0.325180  -0.088527   0.030907  -0.030310   0.073200
    10  H   -0.015523   0.043415   0.248020   0.027478   0.010528  -0.029900
    11  H   -0.030038  -0.022997   0.011062   0.033376   0.245629   0.051662
    12  H    0.045471   0.055501  -0.024027   0.022690  -0.088351   0.287848
               7          8          9         10         11         12
     1  C    0.650733   0.025858  -0.011036  -0.015523  -0.030038   0.045471
     2  C   -0.303625  -0.040864   0.325180   0.043415  -0.022997   0.055501
     3  C    0.030627   0.143956  -0.088527   0.248020   0.011062  -0.024027
     4  C   -0.003039   0.091914   0.030907   0.027478   0.033376   0.022690
     5  C    0.030672   0.130389  -0.030310   0.010528   0.245629  -0.088351
     6  C   -0.309155  -0.050071   0.073200  -0.029900   0.051662   0.287848
     7  O    8.665098   0.000019  -0.007930  -0.000771  -0.000638  -0.008557
     8  H    0.000019   0.613050  -0.000065  -0.003766  -0.002444  -0.000056
     9  H   -0.007930  -0.000065   0.559827  -0.004810   0.000012  -0.000153
    10  H   -0.000771  -0.003766  -0.004810   0.589927  -0.000195   0.000013
    11  H   -0.000638  -0.002444   0.000012  -0.000195   0.579473  -0.004764
    12  H   -0.008557  -0.000056  -0.000153   0.000013  -0.004764   0.556491
 Mulliken charges:
               1
     1  C    0.084024
     2  C   -0.231775
     3  C   -0.325065
     4  C   -0.024891
     5  C   -0.297090
     6  C   -0.140889
     7  O   -0.743435
     8  H    0.092078
     9  H    0.153704
    10  H    0.135585
    11  H    0.139862
    12  H    0.157892
 Sum of Mulliken charges =  -1.00000
 Mulliken charges with hydrogens summed into heavy atoms:
               1
     1  C    0.084024
     2  C   -0.078071
     3  C   -0.189480
     4  C    0.067187
     5  C   -0.157228
     6  C    0.017003
     7  O   -0.743435
 Electronic spatial extent (au):  <R**2>=            684.7151
 Charge=             -1.0000 electrons
 Dipole moment (field-independent basis, Debye):
    X=             -4.5382    Y=              0.0123    Z=              0.0109  Tot=              4.5382
 Quadrupole moment (field-independent basis, Debye-Ang):
   XX=            -69.1022   YY=            -45.7352   ZZ=            -49.6358
   XY=             -0.0583   XZ=              0.3355   YZ=              0.1367
 Traceless Quadrupole moment (field-independent basis, Debye-Ang):
   XX=            -14.2778   YY=              9.0892   ZZ=              5.1886
   XY=             -0.0583   XZ=              0.3355   YZ=              0.1367
 Octapole moment (field-independent basis, Debye-Ang**2):
  XXX=            -28.6337  YYY=             -0.5034  ZZZ=             -0.6405  XYY=              3.1907
  XXY=             -0.5107  XXZ=              1.8971  XZZ=              7.4326  YZZ=              0.0968
  YYZ=             -0.7920  XYZ=             -0.0729
 Hexadecapole moment (field-independent basis, Debye-Ang**3):
 XXXX=           -778.4954 YYYY=           -343.4973 ZZZZ=            -72.6421 XXXY=              0.3765
 XXXZ=              2.6502 YYYX=             -0.4969 YYYZ=              0.6545 ZZZX=             -1.5120
 ZZZY=              0.4108 XXYY=           -162.0224 XXZZ=           -128.7755 YYZZ=            -79.1741
 XXYZ=              0.2841 YYXZ=              0.0781 ZZXY=              0.1784
 N-N= 2.570627785586D+02 E-N=-1.236777423018D+03  KE= 3.034327710292D+02
 Calling FoFJK, ICntrl=      2127 FMM=F ISym2X=0 I1Cent= 0 IOpClX= 0 NMat=1 NMatS=1 NMatT=0.
 ***** Axes restored to original set *****
 -------------------------------------------------------------------
 Center     Atomic                   Forces (Hartrees/Bohr)
 Number     Number              X              Y              Z
 -------------------------------------------------------------------
      1        6           0.065690958   -0.014530744    0.001885037
      2        6          -0.056144221    0.039021598    0.020079100
      3        6           0.010260283   -0.002845771   -0.004215924
      4        6          -0.053584898   -0.022951226    0.002701020
      5        6          -0.043417005   -0.011846092   -0.006817785
      6        6          -0.015873589    0.020298083    0.004935496
      7        8          -0.030954043   -0.008304332   -0.006037606
      8        1           0.083798950    0.039965934    0.015440942
      9        1           0.018944660   -0.015715241   -0.013450018
     10        1          -0.000291034   -0.004223930   -0.001706711
     11        1           0.025548052   -0.006705647   -0.008227892
     12        1          -0.003978112   -0.012162631   -0.004585659
 -------------------------------------------------------------------
 Cartesian Forces:  Max     0.083798950 RMS     0.027680744

 GradGradGradGradGradGradGradGradGradGradGradGradGradGradGradGradGradGrad
 Berny optimization.
 FormGI is forming the generalized inverse of G from B-inverse, IUseBI=4.
 Internal  Forces:  Max     0.094042494 RMS     0.016401709
 Search for a local minimum.
 Step number   1 out of a maximum of   64
 All quantities printed in internal units (Hartrees-Bohrs-Radians)
 Mixed Optimization -- RFO/linear search
 Second derivative matrix not updated -- first step.
 ITU=  0
     Eigenvalues ---    0.01597   0.01735   0.01798   0.01846   0.01917
     Eigenvalues ---    0.01987   0.02032   0.02141   0.02222   0.13245
     Eigenvalues ---    0.15543   0.15800   0.15879   0.15995   0.15997
     Eigenvalues ---    0.21891   0.21989   0.23303   0.24790   0.30030
     Eigenvalues ---    0.32846   0.35368   0.35900   0.39741   0.39962
     Eigenvalues ---    0.40739   0.43491   0.44546   0.48087   0.64925
 RFO step:  Lambda=-6.08481809D-02 EMin= 1.59681668D-02
 Linear search not attempted -- first point.
 Maximum step size (   0.300) exceeded in Quadratic search.
    -- Step size scaled by   0.575
 Iteration  1 RMS(Cart)=  0.03322779 RMS(Int)=  0.01087716
 Iteration  2 RMS(Cart)=  0.01043340 RMS(Int)=  0.00020458
 Iteration  3 RMS(Cart)=  0.00000910 RMS(Int)=  0.00020449
 Iteration  4 RMS(Cart)=  0.00000000 RMS(Int)=  0.00020449
 Variable       Old X    -DE/DX   Delta X   Delta X   Delta X     New X
                                 (Linear)    (Quad)   (Total)
    R1        2.75509  -0.01302   0.00000  -0.01680  -0.01674   2.73835
    R2        2.66305   0.01873   0.00000   0.02282   0.02283   2.68588
    R3        2.47243  -0.03219   0.00000  -0.02606  -0.02606   2.44637
    R4        2.66631  -0.01890   0.00000  -0.02269  -0.02263   2.64368
    R5        1.98305   0.02717   0.00000   0.03393   0.03393   2.01697
    R6        2.65419  -0.00915   0.00000  -0.01163  -0.01164   2.64255
    R7        2.05082   0.00435   0.00000   0.00603   0.00603   2.05684
    R8        2.70574  -0.02614   0.00000  -0.03255  -0.03263   2.67311
    R9        2.70884  -0.09404   0.00000  -0.27971  -0.27971   2.42913
   R10        2.60757   0.00080   0.00000   0.00166   0.00160   2.60916
   R11        2.14603  -0.02680   0.00000  -0.04266  -0.04266   2.10338
   R12        2.09323  -0.01316   0.00000  -0.01943  -0.01943   2.07380
    A1        2.06787  -0.01457   0.00000  -0.02336  -0.02367   2.04421
    A2        2.09476   0.00954   0.00000   0.01759   0.01735   2.11210
    A3        2.11360   0.00571   0.00000   0.01053   0.01027   2.12387
    A4        2.04243   0.01542   0.00000   0.03192   0.03191   2.07434
    A5        2.02452  -0.00167   0.00000   0.00243   0.00231   2.02683
    A6        2.19315  -0.01282   0.00000  -0.02788  -0.02820   2.16495
    A7        2.15488  -0.00769   0.00000  -0.01957  -0.01952   2.13536
    A8        2.06821   0.00346   0.00000   0.00887   0.00884   2.07705
    A9        2.05991   0.00424   0.00000   0.01081   0.01077   2.07069
   A10        2.04614   0.01110   0.00000   0.01995   0.01987   2.06601
   A11        2.06780  -0.00046   0.00000   0.00367   0.00368   2.07149
   A12        2.16287  -0.01050   0.00000  -0.02235  -0.02233   2.14055
   A13        2.11026  -0.00328   0.00000  -0.00578  -0.00595   2.10431
   A14        2.02019   0.00901   0.00000   0.02211   0.02217   2.04235
   A15        2.15238  -0.00569   0.00000  -0.01610  -0.01603   2.13635
   A16        2.12120   0.00002   0.00000   0.00465   0.00453   2.12574
   A17        2.02439   0.00207   0.00000   0.00429   0.00430   2.02869
   A18        2.12549  -0.00169   0.00000  -0.00595  -0.00601   2.11949
    D1        0.22835  -0.00535   0.00000  -0.03806  -0.03808   0.19027
    D2       -3.12921  -0.00279   0.00000  -0.01205  -0.01148  -3.14069
    D3       -3.03826   0.00114   0.00000   0.00532   0.00511  -3.03315
    D4       -0.11264   0.00370   0.00000   0.03133   0.03171  -0.08093
    D5       -0.21232   0.00555   0.00000   0.03574   0.03555  -0.17678
    D6        3.09296   0.00306   0.00000   0.01617   0.01581   3.10876
    D7        3.05569  -0.00127   0.00000  -0.00862  -0.00846   3.04724
    D8        0.07779  -0.00376   0.00000  -0.02818  -0.02820   0.04959
    D9       -0.10181   0.00114   0.00000   0.01482   0.01512  -0.08669
   D10        3.01865   0.00230   0.00000   0.02150   0.02169   3.04035
   D11       -3.00407  -0.00375   0.00000  -0.01928  -0.01881  -3.02288
   D12        0.11640  -0.00259   0.00000  -0.01260  -0.01224   0.10415
   D13       -0.04802   0.00006   0.00000   0.00764   0.00801  -0.04001
   D14       -3.07336  -0.00044   0.00000  -0.00237  -0.00239  -3.07575
   D15        3.11461  -0.00108   0.00000   0.00101   0.00148   3.11609
   D16        0.08926  -0.00158   0.00000  -0.00900  -0.00892   0.08035
   D17        0.07355  -0.00197   0.00000  -0.01479  -0.01490   0.05865
   D18       -3.09584  -0.00038   0.00000  -0.00624  -0.00641  -3.10225
   D19        3.09197  -0.00059   0.00000  -0.00207  -0.00201   3.08995
   D20       -0.07742   0.00099   0.00000   0.00648   0.00648  -0.07095
   D21        0.05875   0.00014   0.00000  -0.00502  -0.00539   0.05335
   D22        3.02716   0.00313   0.00000   0.01671   0.01640   3.04356
   D23       -3.05288  -0.00181   0.00000  -0.01487  -0.01498  -3.06787
   D24       -0.08447   0.00118   0.00000   0.00686   0.00681  -0.07766
         Item               Value     Threshold  Converged?
 Maximum Force            0.094042     0.000450     NO 
 RMS     Force            0.016402     0.000300     NO 
 Maximum Displacement     0.250893     0.001800     NO 
 RMS     Displacement     0.042859     0.001200     NO 
 Predicted change in Energy=-2.788096D-02
 GradGradGradGradGradGradGradGradGradGradGradGradGradGradGradGradGradGrad

                          Input orientation:                          
 ---------------------------------------------------------------------
 Center     Atomic      Atomic             Coordinates (Angstroms)
 Number     Number       Type             X           Y           Z
 ---------------------------------------------------------------------
      1          6           0       34.306258   30.604601   30.363662
      2          6           0       34.075059   29.410197   29.576419
      3          6           0       32.759565   28.979543   29.373582
      4          6           0       31.666277   29.600247   29.985881
      5          6           0       31.913295   30.670438   30.877301
      6          6           0       33.198306   31.132994   31.080148
      7          8           0       35.493322   31.108068   30.478987
      8          1           0       30.494767   29.101713   29.808712
      9          1           0       34.917893   29.026614   29.045663
     10          1           0       32.576118   28.140037   28.705549
     11          1           0       31.030016   31.122725   31.381439
     12          1           0       33.397124   32.018822   31.696657
 ---------------------------------------------------------------------
                    Distance matrix (angstroms):
                    1          2          3          4          5
     1  C    0.000000
     2  C    1.449071   0.000000
     3  C    2.452209   1.398975   0.000000
     4  C    2.849727   2.450716   1.398378   0.000000
     5  C    2.448352   2.820235   2.415878   1.414551   0.000000
     6  C    1.421305   2.449066   2.782483   2.427724   1.380709
     7  O    1.294566   2.389323   3.636752   4.142819   3.628604
     8  H    4.134502   3.601058   2.309453   1.285443   2.369600
     9  H    2.145055   1.067336   2.183604   3.433084   3.883897
    10  H    3.437557   2.149080   1.088435   2.144592   3.399819
    11  H    3.469594   3.932320   3.408234   2.161099   1.113060
    12  H    2.145558   3.429275   3.878192   3.431047   2.165925
                    6          7          8          9         10
     6  C    0.000000
     7  O    2.372575   0.000000
     8  H    3.612724   5.427733   0.000000
     9  H    3.396019   2.591908   4.489090   0.000000
    10  H    3.870869   4.523756   2.544369   2.526975   0.000000
    11  H    2.189147   4.553651   2.616190   4.996510   4.295026
    12  H    1.097407   2.589640   4.527421   4.277127   4.966462
                   11         12
    11  H    0.000000
    12  H    2.550598   0.000000
 Stoichiometry    C6H5O(1-)
 Framework group  C1[X(C6H5O)]
 Deg. of freedom    30
 Full point group                 C1      NOp   1
 Largest Abelian subgroup         C1      NOp   1
 Largest concise Abelian subgroup C1      NOp   1
                         Standard orientation:                         
 ---------------------------------------------------------------------
 Center     Atomic      Atomic             Coordinates (Angstroms)
 Number     Number       Type             X           Y           Z
 ---------------------------------------------------------------------
      1          6           0        1.043515    0.003159   -0.008508
      2          6           0        0.302523   -1.238926    0.080718
      3          6           0       -1.093572   -1.199386    0.000174
      4          6           0       -1.805721    0.002494   -0.061396
      5          6           0       -1.082995    1.216453    0.008774
      6          6           0        0.296538    1.210085    0.065394
      7          8           0        2.337096    0.006015   -0.058915
      8          1           0       -3.090436   -0.040718   -0.059814
      9          1           0        0.879127   -2.135336    0.024308
     10          1           0       -1.647283   -2.135995   -0.029148
     11          1           0       -1.675123    2.158864   -0.003429
     12          1           0        0.875219    2.141787    0.028466
 ---------------------------------------------------------------------
 Rotational constants (GHZ):           5.6300799           2.7042024           1.8299181
 Standard basis: 6-31+G(d) (6D, 7F)
 There are   143 symmetry adapted cartesian basis functions of A   symmetry.
 There are   143 symmetry adapted basis functions of A   symmetry.
   143 basis functions,   244 primitive gaussians,   143 cartesian basis functions
    25 alpha electrons       25 beta electrons
       nuclear repulsion energy       258.4716507963 Hartrees.
 NAtoms=   12 NActive=   12 NUniq=   12 SFac= 1.00D+00 NAtFMM=   60 NAOKFM=F Big=F
 Integral buffers will be    131072 words long.
 Raffenetti 2 integral format.
 Two-electron integral symmetry is turned on.
 One-electron integrals computed using PRISM.
 NBasis=   143 RedAO= T EigKep=  7.21D-06  NBF=   143
 NBsUse=   143 1.00D-06 EigRej= -1.00D+00 NBFU=   143
 Initial guess from the checkpoint file:  "phenolate_camb3lyp_gs.chk"
 B after Tr=    -0.000000   -0.000000    0.000000
         Rot=    0.999999    0.000181    0.000238   -0.001363 Ang=   0.16 deg.
 ExpMin= 4.38D-02 ExpMax= 5.48D+03 ExpMxC= 8.25D+02 IAcc=2 IRadAn=         4 AccDes= 0.00D+00
 Harris functional with IExCor=20419 and IRadAn=       4 diagonalized for initial guess.
 HarFok:  IExCor=20419 AccDes= 0.00D+00 IRadAn=         4 IDoV= 1 UseB2=F ITyADJ=14
 ICtDFT=  3500011 ScaDFX=  1.000000  1.000000  1.000000  1.000000
 FoFCou: FMM=F IPFlag=           0 FMFlag=      100000 FMFlg1=           0
         NFxFlg=           0 DoJE=T BraDBF=F KetDBF=T FulRan=T
         wScrn=  0.000000 ICntrl=       500 IOpCl=  0 I1Cent=   200000004 NGrid=           0
         NMat0=    1 NMatS0=      1 NMatT0=    0 NMatD0=    1 NMtDS0=    0 NMtDT0=    0
 Petite list used in FoFCou.
 Keep R1 ints in memory in canonical form, NReq=121488636.
 Requested convergence on RMS density matrix=1.00D-08 within 128 cycles.
 Requested convergence on MAX density matrix=1.00D-06.
 Requested convergence on             energy=1.00D-06.
 No special actions if energy rises.
 SCF Done:  E(RCAM-B3LYP) =  -306.734444638     A.U. after   15 cycles
            NFock= 15  Conv=0.78D-08     -V/T= 2.0102
 Calling FoFJK, ICntrl=      2127 FMM=F ISym2X=0 I1Cent= 0 IOpClX= 0 NMat=1 NMatS=1 NMatT=0.
 ***** Axes restored to original set *****
 -------------------------------------------------------------------
 Center     Atomic                   Forces (Hartrees/Bohr)
 Number     Number              X              Y              Z
 -------------------------------------------------------------------
      1        6           0.042624641   -0.007983151    0.003468431
      2        6          -0.030863871    0.024501743    0.008209358
      3        6           0.009308687   -0.002373610   -0.003337898
      4        6          -0.059345751   -0.026426990   -0.000876758
      5        6          -0.023362615   -0.007876965   -0.005055646
      6        6          -0.009141773    0.013663267    0.001165887
      7        8          -0.019886816   -0.005512168   -0.003454823
      8        1           0.069054013    0.033025373    0.011651429
      9        1           0.009041341   -0.009666301   -0.006083274
     10        1          -0.000011763   -0.002121349   -0.000569732
     11        1           0.014439686   -0.002779908   -0.003746657
     12        1          -0.001855779   -0.006449939   -0.001370318
 -------------------------------------------------------------------
 Cartesian Forces:  Max     0.069054013 RMS     0.020862888

 GradGradGradGradGradGradGradGradGradGradGradGradGradGradGradGradGradGrad
 Berny optimization.
 Using GEDIIS/GDIIS optimizer.
 FormGI is forming the generalized inverse of G from B-inverse, IUseBI=4.
 Internal  Forces:  Max     0.077347724 RMS     0.012019397
 Search for a local minimum.
 Step number   2 out of a maximum of   64
 All quantities printed in internal units (Hartrees-Bohrs-Radians)
 Mixed Optimization -- RFO/linear search
 Update second derivatives using D2CorX and points    1    2
 DE= -3.13D-02 DEPred=-2.79D-02 R= 1.12D+00
 TightC=F SS=  1.41D+00  RLast= 3.12D-01 DXNew= 5.0454D-01 9.3515D-01
 Trust test= 1.12D+00 RLast= 3.12D-01 DXMaxT set to 5.05D-01
 ITU=  1  0
 Use linear search instead of GDIIS.
     Eigenvalues ---    0.01587   0.01752   0.01771   0.01836   0.01909
     Eigenvalues ---    0.01988   0.02026   0.02142   0.02212   0.06515
     Eigenvalues ---    0.15686   0.15857   0.15895   0.15993   0.15999
     Eigenvalues ---    0.21876   0.23004   0.23201   0.24903   0.30592
     Eigenvalues ---    0.33087   0.35392   0.35909   0.39865   0.40434
     Eigenvalues ---    0.43075   0.43782   0.44976   0.48636   0.64624
 RFO step:  Lambda=-7.33451064D-03 EMin= 1.58662090D-02
 Quartic linear search produced a step of  1.47862.
 Iteration  1 RMS(Cart)=  0.03439986 RMS(Int)=  0.05230984
 Iteration  2 RMS(Cart)=  0.02611912 RMS(Int)=  0.02508579
 Iteration  3 RMS(Cart)=  0.02400221 RMS(Int)=  0.00087413
 Iteration  4 RMS(Cart)=  0.00000355 RMS(Int)=  0.00087412
 Iteration  5 RMS(Cart)=  0.00000000 RMS(Int)=  0.00087412
 Variable       Old X    -DE/DX   Delta X   Delta X   Delta X     New X
                                 (Linear)    (Quad)   (Total)
    R1        2.73835  -0.00635  -0.02475   0.00878  -0.01547   2.72288
    R2        2.68588   0.01127   0.03376  -0.00115   0.03290   2.71878
    R3        2.44637  -0.02069  -0.03853  -0.00816  -0.04669   2.39968
    R4        2.64368  -0.00922  -0.03346   0.01176  -0.02154   2.62214
    R5        2.01697   0.01364   0.05016  -0.01688   0.03328   2.05026
    R6        2.64255  -0.00148  -0.01721   0.02300   0.00547   2.64802
    R7        2.05684   0.00199   0.00891  -0.00464   0.00427   2.06112
    R8        2.67311  -0.01238  -0.04824   0.02157  -0.02715   2.64596
    R9        2.42913  -0.07735  -0.41358  -0.16929  -0.58287   1.84627
   R10        2.60916   0.00272   0.00236   0.01092   0.01311   2.62227
   R11        2.10338  -0.01429  -0.06307   0.02027  -0.04280   2.06057
   R12        2.07380  -0.00631  -0.02873   0.01352  -0.01521   2.05859
    A1        2.04421  -0.00984  -0.03500  -0.01548  -0.05275   1.99145
    A2        2.11210   0.00644   0.02565   0.00173   0.02345   2.13555
    A3        2.12387   0.00369   0.01518  -0.00107   0.01026   2.13413
    A4        2.07434   0.01044   0.04719  -0.00397   0.04362   2.11796
    A5        2.02683  -0.00109   0.00341  -0.00682  -0.00406   2.02277
    A6        2.16495  -0.00867  -0.04170  -0.00169  -0.04408   2.12087
    A7        2.13536  -0.00328  -0.02886   0.02186  -0.00708   2.12828
    A8        2.07705   0.00138   0.01307  -0.01105   0.00203   2.07908
    A9        2.07069   0.00192   0.01593  -0.01098   0.00498   2.07567
   A10        2.06601   0.00268   0.02939  -0.04587  -0.01728   2.04873
   A11        2.07149   0.00270   0.00545   0.02972   0.03553   2.10702
   A12        2.14055  -0.00524  -0.03301   0.01542  -0.01733   2.12322
   A13        2.10431   0.00023  -0.00879   0.02573   0.01639   2.12071
   A14        2.04235   0.00526   0.03278  -0.00924   0.02378   2.06613
   A15        2.13635  -0.00547  -0.02371  -0.01683  -0.04030   2.09605
   A16        2.12574   0.00043   0.00670  -0.00359   0.00333   2.12907
   A17        2.02869   0.00097   0.00635  -0.00515   0.00094   2.02963
   A18        2.11949  -0.00110  -0.00888   0.00383  -0.00530   2.11419
    D1        0.19027  -0.00404  -0.05630   0.12522   0.06888   0.25914
    D2       -3.14069  -0.00134  -0.01698   0.05660   0.03972  -3.10098
    D3       -3.03315   0.00011   0.00755  -0.07640  -0.06885  -3.10200
    D4       -0.08093   0.00281   0.04688  -0.14502  -0.09801  -0.17894
    D5       -0.17678   0.00403   0.05256  -0.11013  -0.05686  -0.23363
    D6        3.10876   0.00175   0.02337  -0.07253  -0.04864   3.06012
    D7        3.04724  -0.00028  -0.01250   0.09281   0.08007   3.12731
    D8        0.04959  -0.00256  -0.04170   0.13041   0.08829   0.13788
    D9       -0.08669   0.00118   0.02236  -0.06276  -0.04084  -0.12753
   D10        3.04035   0.00200   0.03207  -0.07659  -0.04507   2.99527
   D11       -3.02288  -0.00287  -0.02782   0.01229  -0.01542  -3.03830
   D12        0.10415  -0.00204  -0.01811  -0.00154  -0.01965   0.08450
   D13       -0.04001   0.00053   0.01184  -0.02070  -0.00916  -0.04917
   D14       -3.07575  -0.00052  -0.00354  -0.01410  -0.01812  -3.09387
   D15        3.11609  -0.00029   0.00219  -0.00691  -0.00492   3.11118
   D16        0.08035  -0.00135  -0.01319  -0.00032  -0.01387   0.06648
   D17        0.05865  -0.00168  -0.02203   0.03967   0.01753   0.07619
   D18       -3.10225  -0.00058  -0.00948   0.01985   0.01053  -3.09172
   D19        3.08995  -0.00005  -0.00297   0.03350   0.02997   3.11993
   D20       -0.07095   0.00105   0.00958   0.01369   0.02297  -0.04798
   D21        0.05335  -0.00016  -0.00797   0.02793   0.02009   0.07345
   D22        3.04356   0.00241   0.02425  -0.01239   0.01203   3.05559
   D23       -3.06787  -0.00145  -0.02215   0.04872   0.02648  -3.04139
   D24       -0.07766   0.00112   0.01007   0.00840   0.01842  -0.05924
         Item               Value     Threshold  Converged?
 Maximum Force            0.077348     0.000450     NO 
 RMS     Force            0.012019     0.000300     NO 
 Maximum Displacement     0.453403     0.001800     NO 
 RMS     Displacement     0.077580     0.001200     NO 
 Predicted change in Energy=-3.699310D-02
 GradGradGradGradGradGradGradGradGradGradGradGradGradGradGradGradGradGrad

                          Input orientation:                          
 ---------------------------------------------------------------------
 Center     Atomic      Atomic             Coordinates (Angstroms)
 Number     Number       Type             X           Y           Z
 ---------------------------------------------------------------------
      1          6           0       34.298622   30.634865   30.320119
      2          6           0       34.036772   29.420354   29.590359
      3          6           0       32.741302   28.971220   29.377280
      4          6           0       31.635415   29.583992   29.981509
      5          6           0       31.887599   30.640108   30.865552
      6          6           0       33.171737   31.125452   31.068018
      7          8           0       35.473512   31.085707   30.490156
      8          1           0       30.734697   29.228826   29.850737
      9          1           0       34.878251   29.003060   29.047317
     10          1           0       32.575657   28.127291   28.706485
     11          1           0       31.042599   31.097542   31.381032
     12          1           0       33.351837   31.997584   31.695434
 ---------------------------------------------------------------------
                    Distance matrix (angstroms):
                    1          2          3          4          5
     1  C    0.000000
     2  C    1.440886   0.000000
     3  C    2.466152   1.387576   0.000000
     4  C    2.882996   2.438502   1.401274   0.000000
     5  C    2.471954   2.780803   2.393522   1.400182   0.000000
     6  C    1.438714   2.416427   2.772109   2.432466   1.387646
     7  O    1.269857   2.376396   3.629672   4.152693   3.632939
     8  H    3.859899   3.317858   2.077735   0.977004   2.085845
     9  H    2.149135   1.084949   2.162508   3.424351   3.863923
    10  H    3.443886   2.141986   1.090697   2.152142   3.383673
    11  H    3.455618   3.870988   3.379624   2.144978   1.090409
    12  H    2.155202   3.397439   3.860760   3.421852   2.162276
                    6          7          8          9         10
     6  C    0.000000
     7  O    2.373535   0.000000
     8  H    3.319356   5.129642   0.000000
     9  H    3.391160   2.602602   4.226759   0.000000
    10  H    3.862786   4.509021   2.431424   2.486981   0.000000
    11  H    2.152205   4.519600   2.434894   4.954322   4.280871
    12  H    1.089358   2.604941   4.233007   4.278976   4.951306
                   11         12
    11  H    0.000000
    12  H    2.498300   0.000000
 Stoichiometry    C6H5O(1-)
 Framework group  C1[X(C6H5O)]
 Deg. of freedom    30
 Full point group                 C1      NOp   1
 Largest Abelian subgroup         C1      NOp   1
 Largest concise Abelian subgroup C1      NOp   1
                         Standard orientation:                         
 ---------------------------------------------------------------------
 Center     Atomic      Atomic             Coordinates (Angstroms)
 Number     Number       Type             X           Y           Z
 ---------------------------------------------------------------------
      1          6           0        1.061340    0.000356   -0.058580
      2          6           0        0.291693   -1.209649    0.081716
      3          6           0       -1.093753   -1.196858    0.005931
      4          6           0       -1.821655   -0.001232   -0.058922
      5          6           0       -1.100572    1.196632    0.016373
      6          6           0        0.286349    1.206675    0.060087
      7          8           0        2.330962    0.004896   -0.034560
      8          1           0       -2.798518   -0.011652   -0.071814
      9          1           0        0.853650   -2.136613    0.036342
     10          1           0       -1.632648   -2.144731   -0.021416
     11          1           0       -1.654388    2.135928    0.015219
     12          1           0        0.843795    2.142351    0.038513
 ---------------------------------------------------------------------
 Rotational constants (GHZ):           5.7362529           2.7175975           1.8471898
 Standard basis: 6-31+G(d) (6D, 7F)
 There are   143 symmetry adapted cartesian basis functions of A   symmetry.
 There are   143 symmetry adapted basis functions of A   symmetry.
   143 basis functions,   244 primitive gaussians,   143 cartesian basis functions
    25 alpha electrons       25 beta electrons
       nuclear repulsion energy       260.6237354015 Hartrees.
 NAtoms=   12 NActive=   12 NUniq=   12 SFac= 1.00D+00 NAtFMM=   60 NAOKFM=F Big=F
 Integral buffers will be    131072 words long.
 Raffenetti 2 integral format.
 Two-electron integral symmetry is turned on.
 One-electron integrals computed using PRISM.
 NBasis=   143 RedAO= T EigKep=  7.98D-06  NBF=   143
 NBsUse=   143 1.00D-06 EigRej= -1.00D+00 NBFU=   143
 Initial guess from the checkpoint file:  "phenolate_camb3lyp_gs.chk"
 B after Tr=     0.000000    0.000000    0.000000
         Rot=    1.000000    0.000224    0.000270   -0.000827 Ang=   0.10 deg.
 ExpMin= 4.38D-02 ExpMax= 5.48D+03 ExpMxC= 8.25D+02 IAcc=2 IRadAn=         4 AccDes= 0.00D+00
 Harris functional with IExCor=20419 and IRadAn=       4 diagonalized for initial guess.
 HarFok:  IExCor=20419 AccDes= 0.00D+00 IRadAn=         4 IDoV= 1 UseB2=F ITyADJ=14
 ICtDFT=  3500011 ScaDFX=  1.000000  1.000000  1.000000  1.000000
 FoFCou: FMM=F IPFlag=           0 FMFlag=      100000 FMFlg1=           0
         NFxFlg=           0 DoJE=T BraDBF=F KetDBF=T FulRan=T
         wScrn=  0.000000 ICntrl=       500 IOpCl=  0 I1Cent=   200000004 NGrid=           0
         NMat0=    1 NMatS0=      1 NMatT0=    0 NMatD0=    1 NMtDS0=    0 NMtDT0=    0
 Petite list used in FoFCou.
 Keep R1 ints in memory in canonical form, NReq=121488636.
 Requested convergence on RMS density matrix=1.00D-08 within 128 cycles.
 Requested convergence on MAX density matrix=1.00D-06.
 Requested convergence on             energy=1.00D-06.
 No special actions if energy rises.
 SCF Done:  E(RCAM-B3LYP) =  -306.742695951     A.U. after   15 cycles
            NFock= 15  Conv=0.76D-08     -V/T= 2.0085
 Calling FoFJK, ICntrl=      2127 FMM=F ISym2X=0 I1Cent= 0 IOpClX= 0 NMat=1 NMatS=1 NMatT=0.
 ***** Axes restored to original set *****
 -------------------------------------------------------------------
 Center     Atomic                   Forces (Hartrees/Bohr)
 Number     Number              X              Y              Z
 -------------------------------------------------------------------
      1        6           0.008004602   -0.020487670    0.027021869
      2        6          -0.007340778    0.012657743   -0.013944627
      3        6           0.002923152    0.001139199   -0.001689992
      4        6           0.094379756    0.030358836    0.017550170
      5        6           0.001979437    0.002494006   -0.002794421
      6        6          -0.006914132    0.009793041   -0.009491606
      7        8           0.001665824    0.007710313   -0.008015643
      8        1          -0.096582591   -0.036248489   -0.014536901
      9        1           0.001686981   -0.004711560    0.000883151
     10        1           0.000200080   -0.001911397    0.000721484
     11        1           0.000564185    0.000994994    0.002186113
     12        1          -0.000566518   -0.001789017    0.002110403
 -------------------------------------------------------------------
 Cartesian Forces:  Max     0.096582591 RMS     0.025302753

 GradGradGradGradGradGradGradGradGradGradGradGradGradGradGradGradGradGrad
 Berny optimization.
 Using GEDIIS/GDIIS optimizer.
 FormGI is forming the generalized inverse of G from B-inverse, IUseBI=4.
 Internal  Forces:  Max     0.104164279 RMS     0.014433431
 Search for a local minimum.
 Step number   3 out of a maximum of   64
 All quantities printed in internal units (Hartrees-Bohrs-Radians)
 Mixed Optimization -- RFO/linear search
 Update second derivatives using D2CorX and points    2    3
 DE= -8.25D-03 DEPred=-3.70D-02 R= 2.23D-01
 Trust test= 2.23D-01 RLast= 6.39D-01 DXMaxT set to 5.05D-01
 ITU=  0  1  0
 Use linear search instead of GDIIS.
     Eigenvalues ---    0.01614   0.01782   0.01837   0.01886   0.01947
     Eigenvalues ---    0.01989   0.02022   0.02156   0.02214   0.15578
     Eigenvalues ---    0.15795   0.15852   0.15957   0.15998   0.21549
     Eigenvalues ---    0.22552   0.23046   0.24277   0.30296   0.31371
     Eigenvalues ---    0.33100   0.35392   0.35894   0.39914   0.40385
     Eigenvalues ---    0.42511   0.43607   0.45099   0.48626   0.63914
 RFO step:  Lambda=-4.66564548D-03 EMin= 1.61355283D-02
 Quartic linear search produced a step of -0.36542.
 Iteration  1 RMS(Cart)=  0.03888892 RMS(Int)=  0.00386842
 Iteration  2 RMS(Cart)=  0.00323041 RMS(Int)=  0.00104728
 Iteration  3 RMS(Cart)=  0.00000735 RMS(Int)=  0.00104724
 Iteration  4 RMS(Cart)=  0.00000001 RMS(Int)=  0.00104724
 Variable       Old X    -DE/DX   Delta X   Delta X   Delta X     New X
                                 (Linear)    (Quad)   (Total)
    R1        2.72288   0.00207   0.00565  -0.00392   0.00140   2.72428
    R2        2.71878   0.00305  -0.01202   0.01938   0.00692   2.72570
    R3        2.39968   0.00321   0.01706  -0.01389   0.00317   2.40285
    R4        2.62214  -0.00086   0.00787  -0.01157  -0.00361   2.61853
    R5        2.05026   0.00268  -0.01216   0.02023   0.00807   2.05832
    R6        2.64802   0.00150  -0.00200   0.00245   0.00089   2.64892
    R7        2.06112   0.00100  -0.00156   0.00415   0.00259   2.06370
    R8        2.64596   0.00284   0.00992  -0.00946   0.00081   2.64677
    R9        1.84627   0.10416   0.21299   0.01369   0.22668   2.07295
   R10        2.62227  -0.00154  -0.00479   0.00327  -0.00160   2.62067
   R11        2.06057   0.00101   0.01564  -0.02186  -0.00622   2.05435
   R12        2.05859  -0.00031   0.00556  -0.00917  -0.00362   2.05497
    A1        1.99145  -0.00132   0.01928  -0.02698  -0.00839   1.98307
    A2        2.13555   0.00167  -0.00857   0.01728   0.01006   2.14561
    A3        2.13413   0.00178  -0.00375   0.01004   0.00756   2.14170
    A4        2.11796   0.00231  -0.01594   0.04098   0.02225   2.14021
    A5        2.02277   0.00131   0.00148   0.01456   0.01415   2.03692
    A6        2.12087  -0.00272   0.01611  -0.03294  -0.01900   2.10188
    A7        2.12828  -0.00006   0.00259  -0.00750  -0.00466   2.12362
    A8        2.07908  -0.00016  -0.00074   0.00204   0.00109   2.08017
    A9        2.07567   0.00024  -0.00182   0.00575   0.00373   2.07939
   A10        2.04873  -0.00113   0.00631  -0.00648  -0.00195   2.04678
   A11        2.10702   0.00159  -0.01298   0.03133   0.01568   2.12270
   A12        2.12322  -0.00024   0.00633  -0.01361  -0.00990   2.11332
   A13        2.12071   0.00142  -0.00599   0.01300   0.00686   2.12757
   A14        2.06613   0.00132  -0.00869   0.02522   0.01639   2.08252
   A15        2.09605  -0.00271   0.01473  -0.03754  -0.02296   2.07308
   A16        2.12907   0.00050  -0.00122   0.01089   0.00762   2.13669
   A17        2.02963   0.00102  -0.00034   0.00790   0.00674   2.03637
   A18        2.11419  -0.00112   0.00194  -0.00667  -0.00565   2.10854
    D1        0.25914  -0.00722  -0.02517  -0.09103  -0.11636   0.14279
    D2       -3.10098  -0.00309  -0.01451   0.01731   0.00438  -3.09660
    D3       -3.10200   0.00342   0.02516  -0.08852  -0.06410   3.11708
    D4       -0.17894   0.00754   0.03581   0.01982   0.05663  -0.12231
    D5       -0.23363   0.00665   0.02078   0.08916   0.10944  -0.12420
    D6        3.06012   0.00386   0.01777   0.00084   0.01737   3.07750
    D7        3.12731  -0.00395  -0.02926   0.08562   0.05696  -3.09892
    D8        0.13788  -0.00675  -0.03226  -0.00270  -0.03511   0.10278
    D9       -0.12753   0.00306   0.01492   0.01772   0.03314  -0.09439
   D10        2.99527   0.00398   0.01647   0.03594   0.05252   3.04779
   D11       -3.03830  -0.00184   0.00564  -0.10333  -0.09635  -3.13465
   D12        0.08450  -0.00092   0.00718  -0.08512  -0.07697   0.00753
   D13       -0.04917   0.00209   0.00335   0.05919   0.06355   0.01438
   D14       -3.09387  -0.00039   0.00662  -0.06890  -0.06290   3.12641
   D15        3.11118   0.00117   0.00180   0.04105   0.04421  -3.12780
   D16        0.06648  -0.00131   0.00507  -0.08704  -0.08225  -0.01577
   D17        0.07619  -0.00291  -0.00641  -0.06563  -0.07233   0.00386
   D18       -3.09172  -0.00164  -0.00385  -0.03638  -0.04044  -3.13215
   D19        3.11993  -0.00030  -0.01095   0.06639   0.05491  -3.10834
   D20       -0.04798   0.00097  -0.00839   0.09564   0.08681   0.03883
   D21        0.07345  -0.00151  -0.00734  -0.00809  -0.01651   0.05694
   D22        3.05559   0.00161  -0.00440   0.08580   0.08040   3.13600
   D23       -3.04139  -0.00286  -0.00968  -0.03878  -0.04882  -3.09021
   D24       -0.05924   0.00026  -0.00673   0.05511   0.04809  -0.01115
         Item               Value     Threshold  Converged?
 Maximum Force            0.104164     0.000450     NO 
 RMS     Force            0.014433     0.000300     NO 
 Maximum Displacement     0.201396     0.001800     NO 
 RMS     Displacement     0.040934     0.001200     NO 
 Predicted change in Energy=-1.774078D-02
 GradGradGradGradGradGradGradGradGradGradGradGradGradGradGradGradGradGrad

                          Input orientation:                          
 ---------------------------------------------------------------------
 Center     Atomic      Atomic             Coordinates (Angstroms)
 Number     Number       Type             X           Y           Z
 ---------------------------------------------------------------------
      1          6           0       34.319943   30.636257   30.335687
      2          6           0       34.036500   29.455879   29.558094
      3          6           0       32.749986   28.977398   29.368337
      4          6           0       31.647893   29.552047   30.016460
      5          6           0       31.895287   30.646364   30.854896
      6          6           0       33.172760   31.152967   31.040976
      7          8           0       35.499986   31.065796   30.535165
      8          1           0       30.628123   29.181580   29.854791
      9          1           0       34.877524   28.997987   29.039048
     10          1           0       32.590278   28.130758   28.697292
     11          1           0       31.065783   31.112120   31.381029
     12          1           0       33.343935   32.006847   31.692224
 ---------------------------------------------------------------------
                    Distance matrix (angstroms):
                    1          2          3          4          5
     1  C    0.000000
     2  C    1.441625   0.000000
     3  C    2.480392   1.385666   0.000000
     4  C    2.901253   2.434089   1.401747   0.000000
     5  C    2.479644   2.771956   2.392868   1.400610   0.000000
     6  C    1.442377   2.413523   2.776610   2.436759   1.386798
     7  O    1.271533   2.385014   3.644914   4.171224   3.643076
     8  H    3.997109   3.432244   2.186465   1.096956   2.179795
     9  H    2.162429   1.089218   2.152968   3.419478   3.861112
    10  H    3.457398   2.142075   1.092065   2.156005   3.386228
    11  H    3.450904   3.858935   3.382973   2.152842   1.087116
    12  H    2.161319   3.397292   3.864038   3.422102   2.156528
                    6          7          8          9         10
     6  C    0.000000
     7  O    2.383154   0.000000
     8  H    3.430536   5.267658   0.000000
     9  H    3.399687   2.627101   4.330883   0.000000
    10  H    3.868577   4.523121   2.508801   2.469894   0.000000
    11  H    2.134632   4.514397   2.499587   4.948111   4.291276
    12  H    1.087445   2.621625   4.328271   4.294703   4.955974
                   11         12
    11  H    0.000000
    12  H    2.467256   0.000000
 Stoichiometry    C6H5O(1-)
 Framework group  C1[X(C6H5O)]
 Deg. of freedom    30
 Full point group                 C1      NOp   1
 Largest Abelian subgroup         C1      NOp   1
 Largest concise Abelian subgroup C1      NOp   1
                         Standard orientation:                         
 ---------------------------------------------------------------------
 Center     Atomic      Atomic             Coordinates (Angstroms)
 Number     Number       Type             X           Y           Z
 ---------------------------------------------------------------------
      1          6           0        1.073800   -0.002065   -0.052182
      2          6           0        0.285569   -1.206203    0.031628
      3          6           0       -1.099690   -1.196053   -0.000405
      4          6           0       -1.827065    0.002195   -0.004966
      5          6           0       -1.095975    1.196802    0.006366
      6          6           0        0.290743    1.207269    0.016977
      7          8           0        2.344149   -0.002169    0.002673
      8          1           0       -2.923285    0.009428   -0.044509
      9          1           0        0.830554   -2.149270    0.028061
     10          1           0       -1.638827   -2.145508   -0.022108
     11          1           0       -1.626584    2.145613    0.012196
     12          1           0        0.840658    2.145415    0.020465
 ---------------------------------------------------------------------
 Rotational constants (GHZ):           5.7475244           2.6890850           1.8326658
 Standard basis: 6-31+G(d) (6D, 7F)
 There are   143 symmetry adapted cartesian basis functions of A   symmetry.
 There are   143 symmetry adapted basis functions of A   symmetry.
   143 basis functions,   244 primitive gaussians,   143 cartesian basis functions
    25 alpha electrons       25 beta electrons
       nuclear repulsion energy       259.6752287281 Hartrees.
 NAtoms=   12 NActive=   12 NUniq=   12 SFac= 1.00D+00 NAtFMM=   60 NAOKFM=F Big=F
 Integral buffers will be    131072 words long.
 Raffenetti 2 integral format.
 Two-electron integral symmetry is turned on.
 One-electron integrals computed using PRISM.
 NBasis=   143 RedAO= T EigKep=  6.90D-06  NBF=   143
 NBsUse=   143 1.00D-06 EigRej= -1.00D+00 NBFU=   143
 Initial guess from the checkpoint file:  "phenolate_camb3lyp_gs.chk"
 B after Tr=    -0.000000    0.000000   -0.000000
         Rot=    0.999998    0.000019   -0.000013    0.001738 Ang=   0.20 deg.
 ExpMin= 4.38D-02 ExpMax= 5.48D+03 ExpMxC= 8.25D+02 IAcc=2 IRadAn=         4 AccDes= 0.00D+00
 Harris functional with IExCor=20419 and IRadAn=       4 diagonalized for initial guess.
 HarFok:  IExCor=20419 AccDes= 0.00D+00 IRadAn=         4 IDoV= 1 UseB2=F ITyADJ=14
 ICtDFT=  3500011 ScaDFX=  1.000000  1.000000  1.000000  1.000000
 FoFCou: FMM=F IPFlag=           0 FMFlag=      100000 FMFlg1=           0
         NFxFlg=           0 DoJE=T BraDBF=F KetDBF=T FulRan=T
         wScrn=  0.000000 ICntrl=       500 IOpCl=  0 I1Cent=   200000004 NGrid=           0
         NMat0=    1 NMatS0=      1 NMatT0=    0 NMatD0=    1 NMtDS0=    0 NMtDT0=    0
 Petite list used in FoFCou.
 Keep R1 ints in memory in canonical form, NReq=121488636.
 Requested convergence on RMS density matrix=1.00D-08 within 128 cycles.
 Requested convergence on MAX density matrix=1.00D-06.
 Requested convergence on             energy=1.00D-06.
 No special actions if energy rises.
 SCF Done:  E(RCAM-B3LYP) =  -306.754846682     A.U. after   15 cycles
            NFock= 15  Conv=0.84D-08     -V/T= 2.0093
 Calling FoFJK, ICntrl=      2127 FMM=F ISym2X=0 I1Cent= 0 IOpClX= 0 NMat=1 NMatS=1 NMatT=0.
 ***** Axes restored to original set *****
 -------------------------------------------------------------------
 Center     Atomic                   Forces (Hartrees/Bohr)
 Number     Number              X              Y              Z
 -------------------------------------------------------------------
      1        6           0.002680407   -0.014953609    0.020348040
      2        6          -0.000103951    0.006156028   -0.009871668
      3        6          -0.001796514   -0.000754613    0.000183552
      4        6          -0.004681989   -0.000593234   -0.002234866
      5        6           0.002070368    0.000128007   -0.000222578
      6        6          -0.001366957    0.004093246   -0.007756748
      7        8          -0.001029037    0.004916785   -0.006905261
      8        1           0.006081944    0.001311432    0.001141468
      9        1          -0.000001197   -0.000659021    0.000874791
     10        1           0.000690397   -0.000711948    0.001411480
     11        1          -0.002295458    0.000771788    0.001850225
     12        1          -0.000248013    0.000295138    0.001181565
 -------------------------------------------------------------------
 Cartesian Forces:  Max     0.020348040 RMS     0.005329096

 GradGradGradGradGradGradGradGradGradGradGradGradGradGradGradGradGradGrad
 Berny optimization.
 Using GEDIIS/GDIIS optimizer.
 FormGI is forming the generalized inverse of G from B-inverse, IUseBI=4.
 Internal  Forces:  Max     0.006265124 RMS     0.001956275
 Search for a local minimum.
 Step number   4 out of a maximum of   64
 All quantities printed in internal units (Hartrees-Bohrs-Radians)
 Mixed Optimization -- RFO/linear search
 Update second derivatives using D2CorX and points    2    3    4
 DE= -1.22D-02 DEPred=-1.77D-02 R= 6.85D-01
 TightC=F SS=  1.41D+00  RLast= 3.96D-01 DXNew= 8.4853D-01 1.1868D+00
 Trust test= 6.85D-01 RLast= 3.96D-01 DXMaxT set to 8.49D-01
 ITU=  1  0  1  0
 Use linear search instead of GDIIS.
     Eigenvalues ---    0.01560   0.01594   0.01754   0.01842   0.01969
     Eigenvalues ---    0.01990   0.02017   0.02101   0.02203   0.15059
     Eigenvalues ---    0.15948   0.15983   0.15996   0.16005   0.21454
     Eigenvalues ---    0.22573   0.23034   0.24558   0.30760   0.33128
     Eigenvalues ---    0.35390   0.35930   0.39660   0.40411   0.42535
     Eigenvalues ---    0.43652   0.44587   0.48137   0.49051   0.64061
 RFO step:  Lambda=-6.26791769D-03 EMin= 1.56010707D-02
 Quartic linear search produced a step of -0.01005.
 Iteration  1 RMS(Cart)=  0.03364105 RMS(Int)=  0.00502429
 Iteration  2 RMS(Cart)=  0.00360577 RMS(Int)=  0.00368682
 Iteration  3 RMS(Cart)=  0.00000947 RMS(Int)=  0.00368679
 Iteration  4 RMS(Cart)=  0.00000005 RMS(Int)=  0.00368679
 Variable       Old X    -DE/DX   Delta X   Delta X   Delta X     New X
                                 (Linear)    (Quad)   (Total)
    R1        2.72428   0.00011  -0.00001   0.00121   0.00241   2.72668
    R2        2.72570  -0.00004  -0.00007  -0.00001   0.00121   2.72691
    R3        2.40285  -0.00038  -0.00003  -0.00073  -0.00076   2.40209
    R4        2.61853   0.00025   0.00004   0.00172   0.00167   2.62020
    R5        2.05832  -0.00014  -0.00008  -0.00142  -0.00150   2.05683
    R6        2.64892  -0.00036  -0.00001   0.00253   0.00121   2.65013
    R7        2.06370  -0.00042  -0.00003  -0.00133  -0.00136   2.06235
    R8        2.64677   0.00060  -0.00001   0.00468   0.00343   2.65020
    R9        2.07295  -0.00627  -0.00228  -0.02503  -0.02730   2.04564
   R10        2.62067  -0.00067   0.00002  -0.00048  -0.00041   2.62026
   R11        2.05435   0.00298   0.00006   0.01128   0.01134   2.06570
   R12        2.05497   0.00090   0.00004   0.00380   0.00383   2.05881
    A1        1.98307   0.00102   0.00008   0.01458   0.00265   1.98571
    A2        2.14561  -0.00041  -0.00010   0.01481  -0.00189   2.14372
    A3        2.14170   0.00058  -0.00008   0.01905   0.00225   2.14395
    A4        2.14021  -0.00067  -0.00022   0.00096   0.00086   2.14108
    A5        2.03692   0.00062  -0.00014   0.00671   0.00448   2.04140
    A6        2.10188   0.00022   0.00019   0.00073  -0.00117   2.10071
    A7        2.12362  -0.00014   0.00005   0.00322   0.00214   2.12576
    A8        2.08017  -0.00039  -0.00001  -0.00444  -0.00389   2.07628
    A9        2.07939   0.00053  -0.00004   0.00121   0.00174   2.08113
   A10        2.04678   0.00099   0.00002   0.00130  -0.00108   2.04570
   A11        2.12270  -0.00104  -0.00016  -0.00185  -0.00085   2.12186
   A12        2.11332   0.00005   0.00010   0.00002   0.00129   2.11460
   A13        2.12757  -0.00084  -0.00007   0.00125   0.00027   2.12784
   A14        2.08252   0.00024  -0.00016   0.00114   0.00143   2.08395
   A15        2.07308   0.00059   0.00023  -0.00242  -0.00174   2.07134
   A16        2.13669   0.00018  -0.00008   0.00096   0.00225   2.13894
   A17        2.03637   0.00052  -0.00007   0.00461   0.00334   2.03971
   A18        2.10854  -0.00063   0.00006  -0.00292  -0.00406   2.10448
    D1        0.14279  -0.00452   0.00117  -0.18888  -0.18737  -0.04459
    D2       -3.09660  -0.00246  -0.00004  -0.09070  -0.09036   3.09623
    D3        3.11708   0.00330   0.00064   0.12644   0.12619  -3.03991
    D4       -0.12231   0.00537  -0.00057   0.22462   0.22321   0.10090
    D5       -0.12420   0.00400  -0.00110   0.16581   0.16458   0.04038
    D6        3.07750   0.00280  -0.00017   0.11556   0.11529  -3.09039
    D7       -3.09892  -0.00370  -0.00057  -0.14825  -0.14859   3.03568
    D8        0.10278  -0.00489   0.00035  -0.19850  -0.19787  -0.09509
    D9       -0.09439   0.00257  -0.00033   0.10524   0.10439   0.01000
   D10        3.04779   0.00268  -0.00053   0.10930   0.10841  -3.12699
   D11       -3.13465   0.00041   0.00097   0.00318   0.00386  -3.13080
   D12        0.00753   0.00052   0.00077   0.00725   0.00788   0.01541
   D13        0.01438   0.00033  -0.00064   0.01795   0.01707   0.03145
   D14        3.12641   0.00017   0.00063  -0.00223  -0.00154   3.12487
   D15       -3.12780   0.00022  -0.00044   0.01388   0.01304  -3.11477
   D16       -0.01577   0.00006   0.00083  -0.00630  -0.00558  -0.02135
   D17        0.00386  -0.00077   0.00073  -0.04042  -0.03950  -0.03564
   D18       -3.13215  -0.00063   0.00041  -0.03492  -0.03422   3.11682
   D19       -3.10834  -0.00058  -0.00055  -0.02032  -0.02093  -3.12927
   D20        0.03883  -0.00045  -0.00087  -0.01482  -0.01564   0.02319
   D21        0.05694  -0.00161   0.00017  -0.05896  -0.05840  -0.00147
   D22        3.13600  -0.00033  -0.00081  -0.00641  -0.00708   3.12892
   D23       -3.09021  -0.00175   0.00049  -0.06442  -0.06364   3.12933
   D24       -0.01115  -0.00047  -0.00048  -0.01188  -0.01232  -0.02347
         Item               Value     Threshold  Converged?
 Maximum Force            0.006265     0.000450     NO 
 RMS     Force            0.001956     0.000300     NO 
 Maximum Displacement     0.164239     0.001800     NO 
 RMS     Displacement     0.033491     0.001200     NO 
 Predicted change in Energy=-4.019987D-03
 GradGradGradGradGradGradGradGradGradGradGradGradGradGradGradGradGradGrad

                          Input orientation:                          
 ---------------------------------------------------------------------
 Center     Atomic      Atomic             Coordinates (Angstroms)
 Number     Number       Type             X           Y           Z
 ---------------------------------------------------------------------
      1          6           0       34.336536   30.567727   30.422599
      2          6           0       34.035178   29.464235   29.543140
      3          6           0       32.748479   28.979679   29.363903
      4          6           0       31.647494   29.544793   30.023576
      5          6           0       31.893248   30.652036   30.848449
      6          6           0       33.172337   31.149644   31.045750
      7          8           0       35.494915   31.084037   30.508364
      8          1           0       30.642460   29.173425   29.869257
      9          1           0       34.871551   29.014207   29.011515
     10          1           0       32.591319   28.132619   28.693956
     11          1           0       31.057520   31.135076   31.361422
     12          1           0       33.336963   32.018522   31.682069
 ---------------------------------------------------------------------
                    Distance matrix (angstroms):
                    1          2          3          4          5
     1  C    0.000000
     2  C    1.442900   0.000000
     3  C    2.482873   1.386549   0.000000
     4  C    2.904575   2.436872   1.402387   0.000000
     5  C    2.481554   2.775350   2.394175   1.402426   0.000000
     6  C    1.443019   2.417217   2.777952   2.438347   1.386582
     7  O    1.271131   2.384585   3.644314   4.172162   3.643389
     8  H    3.987037   3.420740   2.174451   1.082508   2.170157
     9  H    2.165831   1.088425   2.152395   3.420575   3.863560
    10  H    3.458863   2.139870   1.091346   2.157064   3.387713
    11  H    3.457631   3.868373   3.390451   2.160301   1.093120
    12  H    2.165690   3.403954   3.867140   3.424068   2.155579
                    6          7          8          9         10
     6  C    0.000000
     7  O    2.384839   0.000000
     8  H    3.419043   5.254067   0.000000
     9  H    3.403753   2.629323   4.318135   0.000000
    10  H    3.869232   4.520377   2.502531   2.465258   0.000000
    11  H    2.138296   4.518936   2.499381   4.956509   4.299146
    12  H    1.089473   2.628231   4.317547   4.302642   4.958330
                   11         12
    11  H    0.000000
    12  H    2.465593   0.000000
 Stoichiometry    C6H5O(1-)
 Framework group  C1[X(C6H5O)]
 Deg. of freedom    30
 Full point group                 C1      NOp   1
 Largest Abelian subgroup         C1      NOp   1
 Largest concise Abelian subgroup C1      NOp   1
                         Standard orientation:                         
 ---------------------------------------------------------------------
 Center     Atomic      Atomic             Coordinates (Angstroms)
 Number     Number       Type             X           Y           Z
 ---------------------------------------------------------------------
      1          6           0        1.075457   -0.000317    0.054184
      2          6           0        0.287396   -1.208266    0.011997
      3          6           0       -1.098968   -1.197272   -0.007740
      4          6           0       -1.828620    0.000322    0.000351
      5          6           0       -1.097256    1.196901   -0.009822
      6          6           0        0.289055    1.208949    0.014784
      7          8           0        2.343384   -0.001262   -0.036002
      8          1           0       -2.910677    0.004988   -0.030543
      9          1           0        0.830382   -2.151425   -0.004971
     10          1           0       -1.634786   -2.147857   -0.025768
     11          1           0       -1.629933    2.151286   -0.027579
     12          1           0        0.835563    2.151214   -0.005647
 ---------------------------------------------------------------------
 Rotational constants (GHZ):           5.7327287           2.6891409           1.8313401
 Standard basis: 6-31+G(d) (6D, 7F)
 There are   143 symmetry adapted cartesian basis functions of A   symmetry.
 There are   143 symmetry adapted basis functions of A   symmetry.
   143 basis functions,   244 primitive gaussians,   143 cartesian basis functions
    25 alpha electrons       25 beta electrons
       nuclear repulsion energy       259.5823280034 Hartrees.
 NAtoms=   12 NActive=   12 NUniq=   12 SFac= 1.00D+00 NAtFMM=   60 NAOKFM=F Big=F
 Integral buffers will be    131072 words long.
 Raffenetti 2 integral format.
 Two-electron integral symmetry is turned on.
 One-electron integrals computed using PRISM.
 NBasis=   143 RedAO= T EigKep=  5.97D-06  NBF=   143
 NBsUse=   143 1.00D-06 EigRej= -1.00D+00 NBFU=   143
 Initial guess from the checkpoint file:  "phenolate_camb3lyp_gs.chk"
 B after Tr=     0.000000   -0.000000    0.000000
         Rot=    1.000000    0.000001    0.000004   -0.000428 Ang=   0.05 deg.
 ExpMin= 4.38D-02 ExpMax= 5.48D+03 ExpMxC= 8.25D+02 IAcc=2 IRadAn=         4 AccDes= 0.00D+00
 Harris functional with IExCor=20419 and IRadAn=       4 diagonalized for initial guess.
 HarFok:  IExCor=20419 AccDes= 0.00D+00 IRadAn=         4 IDoV= 1 UseB2=F ITyADJ=14
 ICtDFT=  3500011 ScaDFX=  1.000000  1.000000  1.000000  1.000000
 FoFCou: FMM=F IPFlag=           0 FMFlag=      100000 FMFlg1=           0
         NFxFlg=           0 DoJE=T BraDBF=F KetDBF=T FulRan=T
         wScrn=  0.000000 ICntrl=       500 IOpCl=  0 I1Cent=   200000004 NGrid=           0
         NMat0=    1 NMatS0=      1 NMatT0=    0 NMatD0=    1 NMtDS0=    0 NMtDT0=    0
 Petite list used in FoFCou.
 Keep R1 ints in memory in canonical form, NReq=121488636.
 Requested convergence on RMS density matrix=1.00D-08 within 128 cycles.
 Requested convergence on MAX density matrix=1.00D-06.
 Requested convergence on             energy=1.00D-06.
 No special actions if energy rises.
 SCF Done:  E(RCAM-B3LYP) =  -306.755442438     A.U. after   14 cycles
            NFock= 14  Conv=0.53D-08     -V/T= 2.0093
 Calling FoFJK, ICntrl=      2127 FMM=F ISym2X=0 I1Cent= 0 IOpClX= 0 NMat=1 NMatS=1 NMatT=0.
 ***** Axes restored to original set *****
 -------------------------------------------------------------------
 Center     Atomic                   Forces (Hartrees/Bohr)
 Number     Number              X              Y              Z
 -------------------------------------------------------------------
      1        6          -0.004452161    0.011762417   -0.015675988
      2        6           0.000390510   -0.003389303    0.004106843
      3        6          -0.000294044   -0.001056414    0.002464840
      4        6           0.004166305    0.003963711   -0.001093965
      5        6          -0.000081999   -0.001403502    0.002952742
      6        6           0.000913164   -0.003019724    0.003293143
      7        8           0.001486825   -0.004997878    0.006454778
      8        1          -0.002900810   -0.001708064   -0.000369865
      9        1           0.000335053    0.000267730   -0.000190695
     10        1           0.000053870    0.000253865   -0.000471761
     11        1           0.000483290   -0.000311166   -0.001122812
     12        1          -0.000100004   -0.000361674   -0.000347259
 -------------------------------------------------------------------
 Cartesian Forces:  Max     0.015675988 RMS     0.004041935

 GradGradGradGradGradGradGradGradGradGradGradGradGradGradGradGradGradGrad
 Berny optimization.
 Using GEDIIS/GDIIS optimizer.
 FormGI is forming the generalized inverse of G from B-inverse, IUseBI=4.
 Internal  Forces:  Max     0.004358156 RMS     0.001559844
 Search for a local minimum.
 Step number   5 out of a maximum of   64
 All quantities printed in internal units (Hartrees-Bohrs-Radians)
 Mixed Optimization -- RFO/linear search
 Update second derivatives using D2CorX and points    4    5
 DE= -5.96D-04 DEPred=-4.02D-03 R= 1.48D-01
[...]
   D21        0.00023  -0.00000   0.00000  -0.00023  -0.00023  -0.00000
   D22       -3.14116  -0.00001   0.00000  -0.00043  -0.00043   3.14159
   D23       -3.14121  -0.00001   0.00000  -0.00038  -0.00038   3.14159
   D24        0.00058  -0.00001   0.00000  -0.00058  -0.00058  -0.00000
         Item               Value     Threshold  Converged?
 Maximum Force            0.000057     0.000450     YES
 RMS     Force            0.000015     0.000300     YES
 Maximum Displacement     0.000863     0.001800     YES
 RMS     Displacement     0.000277     0.001200     YES
 Predicted change in Energy=-5.011684D-08
 Optimization completed.
    -- Stationary point found.
                           ----------------------------
                           !   Optimized Parameters   !
                           ! (Angstroms and Degrees)  !
 --------------------------                            --------------------------
 ! Name  Definition              Value          Derivative Info.                !
 --------------------------------------------------------------------------------
 ! R1    R(1,2)                  1.4414         -DE/DX =    0.0                 !
 ! R2    R(1,6)                  1.4414         -DE/DX =    0.0                 !
 ! R3    R(1,7)                  1.2708         -DE/DX =    0.0001              !
 ! R4    R(2,3)                  1.386          -DE/DX =    0.0                 !
 ! R5    R(2,9)                  1.0887         -DE/DX =    0.0                 !
 ! R6    R(3,4)                  1.4012         -DE/DX =    0.0                 !
 ! R7    R(3,10)                 1.0914         -DE/DX =    0.0                 !
 ! R8    R(4,5)                  1.4012         -DE/DX =    0.0                 !
 ! R9    R(4,8)                  1.0875         -DE/DX =    0.0                 !
 ! R10   R(5,6)                  1.3859         -DE/DX =    0.0                 !
 ! R11   R(5,11)                 1.0914         -DE/DX =    0.0                 !
 ! R12   R(6,12)                 1.0887         -DE/DX =    0.0                 !
 ! A1    A(2,1,6)              114.0282         -DE/DX =    0.0                 !
 ! A2    A(2,1,7)              122.9887         -DE/DX =    0.0                 !
 ! A3    A(6,1,7)              122.9831         -DE/DX =    0.0                 !
 ! A4    A(1,2,3)              122.5125         -DE/DX =    0.0                 !
 ! A5    A(1,2,9)              116.8739         -DE/DX =    0.0                 !
 ! A6    A(3,2,9)              120.6136         -DE/DX =    0.0                 !
 ! A7    A(2,3,4)              121.7471         -DE/DX =    0.0                 !
 ! A8    A(2,3,10)             118.9507         -DE/DX =    0.0                 !
 ! A9    A(4,3,10)             119.3022         -DE/DX =    0.0                 !
 ! A10   A(3,4,5)              117.4526         -DE/DX =    0.0                 !
 ! A11   A(3,4,8)              121.2739         -DE/DX =    0.0                 !
 ! A12   A(5,4,8)              121.2735         -DE/DX =    0.0                 !
 ! A13   A(4,5,6)              121.7468         -DE/DX =    0.0                 !
 ! A14   A(4,5,11)             119.2975         -DE/DX =    0.0                 !
 ! A15   A(6,5,11)             118.9557         -DE/DX =    0.0                 !
 ! A16   A(1,6,5)              122.5127         -DE/DX =    0.0                 !
 ! A17   A(1,6,12)             116.8714         -DE/DX =    0.0                 !
 ! A18   A(5,6,12)             120.6159         -DE/DX =    0.0                 !
 ! D1    D(6,1,2,3)              0.0265         -DE/DX =    0.0                 !
 ! D2    D(6,1,2,9)            179.9926         -DE/DX =    0.0                 !
 ! D3    D(7,1,2,3)           -179.9743         -DE/DX =    0.0                 !
 ! D4    D(7,1,2,9)             -0.0081         -DE/DX =    0.0                 !
 ! D5    D(2,1,6,5)             -0.0286         -DE/DX =    0.0                 !
 ! D6    D(2,1,6,12)           179.96           -DE/DX =    0.0                 !
 ! D7    D(7,1,6,5)            179.9721         -DE/DX =    0.0                 !
 ! D8    D(7,1,6,12)            -0.0393         -DE/DX =    0.0                 !
 ! D9    D(1,2,3,4)             -0.0086         -DE/DX =    0.0                 !
 ! D10   D(1,2,3,10)           179.9663         -DE/DX =    0.0                 !
 ! D11   D(9,2,3,4)           -179.9736         -DE/DX =    0.0                 !
 ! D12   D(9,2,3,10)             0.0013         -DE/DX =    0.0                 !
 ! D13   D(2,3,4,5)             -0.0091         -DE/DX =    0.0                 !
 ! D14   D(2,3,4,8)            179.9606         -DE/DX =    0.0                 !
 ! D15   D(10,3,4,5)          -179.9839         -DE/DX =    0.0                 !
 ! D16   D(10,3,4,8)            -0.0143         -DE/DX =    0.0                 !
 ! D17   D(3,4,5,6)              0.0069         -DE/DX =    0.0                 !
 ! D18   D(3,4,5,11)           179.9983         -DE/DX =    0.0                 !
 ! D19   D(8,4,5,6)           -179.9627         -DE/DX =    0.0                 !
 ! D20   D(8,4,5,11)             0.0286         -DE/DX =    0.0                 !
 ! D21   D(4,5,6,1)              0.0131         -DE/DX =    0.0                 !
 ! D22   D(4,5,6,12)          -179.9752         -DE/DX =    0.0                 !
 ! D23   D(11,5,6,1)          -179.9783         -DE/DX =    0.0                 !
 ! D24   D(11,5,6,12)            0.0335         -DE/DX =    0.0                 !
 --------------------------------------------------------------------------------
 GradGradGradGradGradGradGradGradGradGradGradGradGradGradGradGradGradGrad


 ----------------------------------------------------------------------

 Electric dipole moment (input orientation):
 (Debye = 10**-18 statcoulomb cm , SI units = C m)
                  (au)            (Debye)         (10**-30 SI)
   Tot        0.192648D+01      0.489661D+01      0.163333D+02
   x         -0.178076D+01     -0.452625D+01     -0.150979D+02
   y         -0.693203D+00     -0.176195D+01     -0.587722D+01
   z         -0.244259D+00     -0.620844D+00     -0.207091D+01

 Dipole polarizability, Alpha (input orientation).
 (esu units = cm**3 , SI units = C**2 m**2 J**-1)
 Alpha(0;0):
               (au)            (10**-24 esu)      (10**-40 SI)
   iso        0.866092D+02      0.128342D+02      0.142799D+02
   aniso      0.521833D+02      0.773277D+01      0.860387D+01
   xx         0.109956D+03      0.162938D+02      0.181292D+02
   yx         0.104982D+02      0.155567D+01      0.173092D+01
   yy         0.802379D+02      0.118900D+02      0.132295D+02
   zx        -0.131440D+01     -0.194774D+00     -0.216716D+00
   zy         0.189434D+02      0.280713D+01      0.312335D+01
   zz         0.696339D+02      0.103187D+02      0.114811D+02

 ----------------------------------------------------------------------

 Dipole oientation:
     6        -54.46052851        -11.37123968        -88.04801442
     6        -52.48220353        -10.22827384        -86.56511503
     6        -52.50087770        -10.23913658        -83.94611623
     6        -54.46055963        -11.37102103        -82.57152195
     6        -56.42054787        -12.50256937        -83.94608474
     6        -56.43938554        -12.51326966        -86.56503519
     8        -54.46023396        -11.37204713        -90.44942119
     1        -54.45990870        -11.37210215        -80.51636579
     1        -50.94115864         -9.33913313        -87.59815645
     1        -50.94480586         -9.34134692        -82.93288279
     1        -57.97598891        -13.40101854        -82.93271082
     1        -57.98054926        -13.40213817        -87.59809908

 Electric dipole moment (dipole orientation):
 (Debye = 10**-18 statcoulomb cm , SI units = C m)
                  (au)            (Debye)         (10**-30 SI)
   Tot        0.192648D+01      0.489661D+01      0.163333D+02
   x          0.000000D+00      0.000000D+00      0.000000D+00
   y          0.000000D+00      0.000000D+00      0.000000D+00
   z          0.192648D+01      0.489661D+01      0.163333D+02

 Dipole polarizability, Alpha (dipole orientation).
 (esu units = cm**3 , SI units = C**2 m**2 J**-1)
 Alpha(0;0):
               (au)            (10**-24 esu)      (10**-40 SI)
   iso        0.866092D+02      0.128342D+02      0.142799D+02
   aniso      0.521833D+02      0.773277D+01      0.860387D+01
   xx         0.823405D+02      0.122016D+02      0.135761D+02
   yx         0.162174D+02      0.240317D+01      0.267389D+01
   yy         0.636232D+02      0.942799D+01      0.104901D+02
   zx        -0.374948D-02     -0.555616D-03     -0.618207D-03
   zy         0.848445D-02      0.125727D-02      0.139890D-02
   zz         0.113864D+03      0.168729D+02      0.187736D+02

 ----------------------------------------------------------------------
 Unable to Open any file for archive entry.
 1\1\GINC-NODE28\Freq\RCAM-B3LYP\6-31+G(d)\C6H5O1(1-)\TJZ21\06-Nov-2017
 \0\\#N Geom=AllCheck Guess=TCheck SCRF=Check GenChk RCAM-B3LYP/6-31+G(
 d) Freq\\pCT- Geometry Optimization\\-1,1\C,34.3270126599,30.598545852
 9,30.381780136\C,34.0332182431,29.4718242382,29.5322204946\C,32.748044
 9878,28.9811360446,29.3635657014\C,31.6482066823,29.5556496441,30.0143
 934904\C,31.8931368302,30.6535305697,30.8498889196\C,33.1701203448,31.
 1601686157,31.0327835566\O,35.5015766494,31.0561385451,30.5426039237\H
 ,30.642837721,29.1647246381,29.8759791816\H,34.8745230971,29.011361886
 9,29.0170316804\H,32.591683794,28.1246369076,28.7053791515\H,31.058157
 0438,31.1243464577,31.3716667623\H,33.3394819466,32.0139365993,31.6867
 070019\\Version=ES64L-GDVRevI.10+\State=1-A\HF=-306.7566889\RMSD=2.920
 e-09\RMSF=2.023e-05\ZeroPoint=0.0918336\Thermal=0.0970234\Dipole=-1.78
 07633,-0.6932031,-0.244259\DipoleDeriv=1.9989281,0.7648216,0.2792621,0
 .7649749,0.3480283,0.0680986,0.2792199,0.068032,0.1014505,-0.3865909,0
 .0293182,0.036809,-0.6095949,-0.3021653,0.1122462,-0.4740533,0.0011291
 ,-0.2258851,0.6765432,-0.1645166,-0.2823493,0.0658648,0.0266583,0.1614
 582,-0.0983262,0.2014862,-0.01111,-0.4488094,0.05054,0.0582934,0.05028
 49,-0.5045885,-0.1335611,0.0587172,-0.1335318,-0.4651974,0.2978005,0.3
 624053,0.2048399,0.1321958,0.3151157,0.3803167,0.0205594,0.3402472,0.0
 789537,-0.6687386,-0.3884343,-0.2477623,0.2503063,-0.0870581,0.1343672
 ,0.2630624,0.2459129,-0.1586063,-2.0839316,-0.6308601,-0.2324753,-0.63
 08314,-0.7247304,-0.0491077,-0.2325234,-0.0491241,-0.5243732,-0.206325
 7,-0.1075727,-0.0146759,-0.1073688,0.0606092,-0.096624,-0.014915,-0.09
 67168,0.1299251,-0.1127662,0.0819074,0.1122182,0.0644431,0.0357751,-0.
 1067293,0.0984894,-0.1098301,0.0501729,0.0480893,-0.0485829,-0.0245281
 ,-0.0523599,-0.120552,-0.1916908,-0.0275819,-0.1924996,-0.0187139,-0.1
 464135,0.1000181,0.1281849,0.1038013,0.0274263,-0.1005009,0.1311975,-0
 .0997373,0.027873,0.0322148,-0.049044,-0.0178167,-0.0317162,-0.0745187
 ,-0.1782731,-0.0038459,-0.1753677,0.0155106\Polar=109.9557156,10.49818
 75,80.2379498,-1.3144014,18.9434259,69.633873\Quadrupole=-7.0975763,2.
 936655,4.1609213,-4.7953929,-1.9822678,0.3821049\PG=C01 [X(C6H5O1)]\NI
 mag=0\\0.75688368,0.10625127,0.45587151,-0.01370590,0.19284673,0.34811
 893,-0.11929647,0.01242551,0.01870683,0.74441482,-0.01582900,-0.177525
 33,-0.08400041,0.04349211,0.42604423,-0.00391025,-0.08892391,-0.139395
 51,-0.07624539,0.24705058,0.31853865,0.01299733,-0.05926079,-0.0504783
 7,-0.33807958,-0.06408555,-0.00134694,0.68164249,-0.02792513,-0.005990
 05,0.00383164,-0.11090111,-0.13106581,-0.04419272,0.05688947,0.4957471
 0,-0.02540638,0.00929318,0.00715130,-0.03883619,-0.05235671,-0.0867986
 2,-0.05009451,0.28086511,0.36570580,0.00064374,0.02142939,0.01651974,-
 0.05666642,-0.01120077,0.00227443,-0.24699930,0.08644600,0.10248969,0.
 71563760,0.02143082,-0.03377946,-0.02841349,0.02501307,0.03420895,0.01
 671014,0.03996925,-0.13152847,-0.06798092,0.07482323,0.45083099,0.0165
 1275,-0.02841604,-0.02852444,0.03125175,0.02301516,0.02087355,0.065276
 53,-0.07605470,-0.12744813,-0.04726698,0.26863019,0.32189137,-0.047400
 08,0.01939753,0.02294938,-0.02187917,-0.01017313,-0.00417834,0.0343334
 4,0.01306070,0.00530619,-0.12431699,-0.00965525,0.00426785,0.70682043,
 -0.01194291,0.04000313,0.03783860,-0.02775570,-0.02130033,-0.01294910,
 0.04988679,-0.02205813,-0.03010088,-0.05615948,-0.22487960,-0.12591598
 ,0.03723229,0.47670495,-0.00211093,0.03237422,0.02155999,-0.01823018,-
 0.01600061,-0.00870938,0.03474870,-0.02369448,-0.02026975,-0.03291364,
 -0.13399641,-0.15671132,-0.07017737,0.26901549,0.35966244,-0.17224255,
 0.02563934,0.03851918,0.03823781,0.02717575,0.01548411,-0.04702631,0.0
 0952882,0.01595967,0.00609470,-0.06037626,-0.04796748,-0.33697972,-0.0
 6498770,-0.00232735,0.67286618,0.05390102,-0.13710906,-0.06388847,0.02
 049103,-0.00769107,-0.01153317,-0.00805464,-0.00216061,-0.00105801,-0.
 02415133,-0.01355873,-0.01295630,-0.11182978,-0.13195853,-0.04475366,0
 .09960542,0.48040702,0.06113399,-0.05897050,-0.12683428,0.01012255,-0.
 01268759,-0.00966710,0.00191184,-0.00411666,-0.00270145,-0.01901147,-0
 .00664429,0.00588141,-0.03978045,-0.05291622,-0.08707164,-0.01879496,0
 .28094643,0.33577660,-0.43749670,-0.13665757,-0.04502034,-0.02337368,-
 0.03769349,-0.02275931,0.00532271,0.00165210,0.00139042,-0.00878407,-0
 .00763043,-0.00477089,0.00929439,0.01053484,0.00780974,-0.08041121,-0.
 00961855,0.00961396,0.53418288,-0.13666170,-0.13583461,-0.02921502,-0.
 05429010,-0.01974753,-0.02132237,0.01364982,-0.00108901,-0.00786110,-0
 .00762734,0.00497008,0.00626467,-0.00146335,-0.00411004,-0.00764493,0.
 00698286,0.02370014,0.00272474,0.18062480,0.13172049,-0.04501743,-0.02
 922307,-0.08496520,-0.03604293,-0.02421408,0.00569335,0.01098422,-0.00
 576894,-0.00075861,-0.00477456,0.00625968,0.00464261,-0.00178437,-0.00
 973701,-0.00171067,0.02289274,0.00562652,0.01927620,0.05674379,0.04822
 358,0.06061966,0.00078513,0.00082283,0.00043377,-0.00137315,0.00306821
 ,0.00360586,-0.01858652,-0.01173477,-0.00650092,-0.29358657,-0.0948373
 7,-0.02836934,-0.00208399,0.00106048,0.00087101,0.00154929,-0.00121887
 ,-0.00033283,-0.00048920,-0.00036109,-0.00029374,0.31335907,0.00082074
 ,-0.00081156,-0.00039081,0.00106961,0.00099218,-0.00360377,0.01398440,
 0.00630844,0.00418700,-0.09482695,-0.07939441,-0.03130657,-0.02466998,
 -0.00625036,0.00085064,0.00077850,-0.00123468,-0.00533508,-0.00035838,
 0.00006891,0.00053529,0.10324184,0.08105985,0.00043607,-0.00038978,-0.
 00088935,0.00200932,-0.00395267,0.00175170,0.01408783,0.00865333,0.002
 51838,-0.02838157,-0.03131521,-0.03983208,-0.01970419,-0.00360719,-0.0
 0142440,0.00126473,-0.00498407,0.00105472,-0.00029660,0.00053365,-0.00
 004356,0.03150575,0.03188595,0.03886236,0.00265481,-0.00448099,-0.0030
 9372,-0.21890518,0.08921423,0.10429361,-0.01820664,0.01486892,0.015145
 47,-0.00296761,-0.00415115,-0.00155743,0.00023126,-0.00044667,-0.00041
 652,0.00087880,-0.00079853,-0.00001863,0.00271549,0.00128289,-0.000099
 34,-0.00115616,0.00053072,0.00082340,0.23384037,0.02363513,-0.00457587
 ,-0.01215038,0.08822680,-0.09830848,-0.06984364,-0.01019496,0.00682306
 ,0.00688610,-0.00271112,0.00270223,-0.00308500,-0.00104337,-0.00076187
 ,-0.00033794,-0.00226746,-0.00222035,-0.00492362,-0.00137106,0.0010136
 1,0.00403304,-0.00060445,0.00066897,-0.00026799,-0.09615323,0.09702155
 ,0.01939201,-0.00724364,-0.00372050,0.10352030,-0.07002685,-0.10431498
 ,-0.00491444,0.00251839,0.00330794,-0.00040727,-0.00283726,0.00494973,
 -0.00088958,-0.00043855,-0.00030854,-0.00119746,-0.00517747,0.00049939
 ,-0.00222445,0.00357064,-0.00048672,-0.00008447,-0.00046606,0.00077649
 ,-0.11385658,0.07666142,0.10334979,-0.00440522,-0.00021963,0.00214148,
 0.00068519,-0.02489860,-0.01930676,-0.06546859,-0.03110179,-0.01980807
 ,0.00903210,0.01982558,0.01476553,-0.00371460,0.00129177,0.00269210,-0
 .00066144,-0.00024809,-0.00016732,-0.00076559,-0.00145018,-0.00123380,
 0.00092710,-0.00024336,-0.00096189,0.00075468,0.00101082,-0.00016413,0
 .06327513,-0.00222561,0.00545223,-0.00239030,0.00015384,-0.00680514,-0
 .00883269,-0.03084142,-0.21364994,-0.13657522,-0.00495436,-0.00771358,
 -0.00749243,0.00304412,0.00212853,-0.00348477,0.00008252,0.00038235,0.
 00068127,-0.00099351,-0.00166932,-0.00019949,0.00096932,-0.00070152,0.
 00205902,-0.00009105,-0.00099074,0.00309153,0.03490514,0.22455740,0.00
 054558,-0.00273654,0.00663437,0.00074541,-0.00446576,0.00049854,-0.019
 60812,-0.13653915,-0.14211368,-0.00505879,-0.01180198,-0.00583574,0.00
 409161,-0.00317843,0.00256772,0.00009408,0.00073718,0.00008625,-0.0008
 7306,-0.00012192,-0.00114639,0.00001022,0.00226940,-0.00167027,-0.0010
 4802,0.00289822,-0.00233156,0.02129246,0.15350227,0.14425867,-0.000942
 54,-0.00493232,-0.00223309,-0.00002822,-0.00041547,-0.00041186,0.00134
 926,-0.00092442,0.00003915,0.00642271,-0.00290910,-0.00296937,-0.21372
 857,0.08529239,0.09908611,-0.01946363,0.01594716,0.01687505,-0.0027392
 5,0.00054950,0.00071009,0.00092382,0.00097257,0.00001163,-0.00006128,0
 .00019071,0.00000956,0.00020049,-0.00008158,-0.00003903,0.22708763,-0.
 00293273,0.00281192,-0.00437628,-0.00074184,-0.00009862,0.00043974,-0.
 00267855,-0.00172469,-0.00557082,0.02187522,-0.00573650,-0.01057486,0.
 08504479,-0.10091729,-0.06651267,-0.00912327,0.00853826,0.00505700,0.0
 0009724,-0.00016619,0.00081193,-0.00024208,-0.00069814,0.00227051,0.00
 018713,-0.00027540,0.00045390,0.00109963,-0.00056075,-0.00092169,-0.09
 342113,0.09998936,-0.00063013,-0.00402448,0.00581406,-0.00067813,0.000
 37883,-0.00006612,-0.00135672,-0.00587798,0.00135560,0.01685260,-0.006
 25263,-0.00520394,0.09886994,-0.06656723,-0.10668883,-0.00315943,0.000
 69686,0.00530917,0.00034412,0.00073211,-0.00067648,-0.00095792,0.00206
 055,-0.00166986,0.00000594,0.00045302,-0.00052258,0.00090587,-0.000716
 85,-0.00037745,-0.10985228,0.07613135,0.10511287,0.00781885,0.01958544
 ,0.01526103,-0.00373596,0.00134570,0.00250083,-0.00127830,0.00014120,0
 .00031549,-0.00450990,-0.00150241,0.00082708,-0.00057641,-0.02400608,-
 0.01903167,-0.06284193,-0.03402484,-0.02155173,0.00254424,-0.00123610,
 -0.00208467,-0.00026883,-0.00129972,-0.00079447,0.00022144,0.00128218,
 0.00081652,0.00014075,0.00003257,-0.00015234,0.00097957,0.00083559,-0.
 00034385,0.06150648,-0.00852190,-0.00851286,-0.00969181,0.00281678,0.0
 0129696,-0.00299908,0.00073619,0.00038811,0.00027227,-0.00294250,0.003
 87851,-0.00210815,0.00105542,-0.00660046,-0.00581487,-0.03303854,-0.21
 709475,-0.14381550,0.00141402,0.00114347,0.00365255,-0.00016404,-0.000
 00768,-0.00088555,0.00003773,-0.00109671,-0.00010605,0.00002870,-0.000
 42952,0.00035840,-0.00026833,-0.00116197,0.00298646,0.03884646,0.22819
 691,-0.00723936,-0.01458617,-0.00494936,0.00367665,-0.00273990,0.00159
 591,0.00078999,0.00037617,0.00005122,-0.00032217,-0.00235783,0.0053169
 9,0.00102933,-0.00144350,-0.00089561,-0.02076784,-0.14365583,-0.141609
 27,0.00004262,0.00411596,-0.00044420,0.00011261,-0.00068654,0.00056585
 ,-0.00017817,-0.00032323,-0.00119846,-0.00015547,0.00035765,-0.0005704
 6,-0.00122598,0.00279188,-0.00238644,0.02423780,0.15815133,0.14452383\
 \0.00002338,0.00000654,-0.00001482,0.00002342,0.00001283,0.00003623,-0
 .00002966,0.00000330,0.00004531,0.00002089,-0.00001037,0.00000501,-0.0
 0001197,0.00000076,0.00001113,0.00002337,0.00001570,-0.00002184,-0.000
 05666,-0.00001126,-0.00000780,-0.00001517,0.00000548,-0.00001600,-0.00
 000860,0.00001221,-0.00000505,0.00000033,0.00000743,-0.00001034,0.0000
 2682,-0.00001723,-0.00002826,0.00000386,-0.00002540,0.00000643\\\@
 The archive entry for this job was punched.


 LENDING MONEY TO FRIENDS CAUSES THEM TO LOSE THEIR MEMORIES.

    --  PETER'S THEORY OF RECIPROCAL INHIBITION OF FISCAL RECALL
 Job cpu time:       0 days  0 hours 11 minutes  1.6 seconds.
 Elapsed time:       0 days  0 hours  0 minutes 41.9 seconds.
 File lengths (MBytes):  RWF=     31 Int=      0 D2E=      0 Chk=      4 Scr=      1
 Normal termination of Gaussian DV at Mon Nov  6 21:03:42 2017.
