************************************************************
This is node27.cluster of cluster Pinconning.
Date: Thu Feb 21 18:20:55 PST 2019
************************************************************
 Set GAUSS_MDEF to "32GB".
 Set GAUSS_PDEF to "16".
 Entering Gaussian System, Link 0=gdv
 Initial command:
 /opt/gaussian/gdv-20170407-i10+/gdv/local/l1.exe "/tmp/652478.1.16core.q/Gau-4058.inp" -scrdir="/tmp/652478.1.16core.q/"
 Default is to use a total of  16 processors:
                               16 via shared-memory
                                1 via Linda
 Entering Link 1 = /opt/gaussian/gdv-20170407-i10+/gdv/local/l1.exe PID=      4059.
  
 Copyright (c) 1988-2017, Gaussian, Inc.  All Rights Reserved.
  
 This is the private, development version of
 the Gaussian(R) DV system of programs. It is based on
 the Gaussian(R) 16 system (copyright 2016, Gaussian, Inc.),
 the Gaussian(R) 09 system (copyright 2009, Gaussian, Inc.),
 the Gaussian(R) 03 system (copyright 2003, Gaussian, Inc.),
 the Gaussian(R) 98 system (copyright 1998, Gaussian, Inc.),
 the Gaussian(R) 94 system (copyright 1995, Gaussian, Inc.),
 the Gaussian 92(TM) system (copyright 1992, Gaussian, Inc.),
 the Gaussian 90(TM) system (copyright 1990, Gaussian, Inc.),
 the Gaussian 88(TM) system (copyright 1988, Gaussian, Inc.),
 the Gaussian 86(TM) system (copyright 1986, Carnegie Mellon
 University), and the Gaussian 82(TM) system (copyright 1983,
 Carnegie Mellon University). Gaussian is a federally registered
 trademark of Gaussian, Inc.
  
 This software contains proprietary and confidential information,
 including trade secrets, belonging to Gaussian, Inc.
  
 This software is provided under written license and may be
 used, copied, transmitted, or stored only in accord with that
 written license.
  
 The following legend is applicable only to US Government
 contracts under FAR:
  
                    RESTRICTED RIGHTS LEGEND
  
 Use, reproduction and disclosure by the US Government is
 subject to restrictions as set forth in subparagraphs (a)
 and (c) of the Commercial Computer Software - Restricted
 Rights clause in FAR 52.227-19.
  
 Gaussian, Inc.
 340 Quinnipiac St., Bldg. 40, Wallingford CT 06492
  
  
 ---------------------------------------------------------------
 Warning -- This program may not be used in any manner that
 competes with the business of Gaussian, Inc. or will provide
 assistance to any competitor of Gaussian, Inc.  The licensee
 of this program is prohibited from giving any competitor of
 Gaussian, Inc. access to this program.  By using this program,
 the user acknowledges that Gaussian, Inc. is engaged in the
 business of creating and licensing software in the field of
 computational chemistry and represents and warrants to the
 licensee that it is not a competitor of Gaussian, Inc. and that
 it will not use this program in any manner prohibited above.
 ---------------------------------------------------------------
  

 Cite this work as:
 Gaussian Development Version, Revision I.10+,
 M. J. Frisch, G. W. Trucks, H. B. Schlegel, G. E. Scuseria, 
 M. A. Robb, J. R. Cheeseman, G. Scalmani, V. Barone, 
 G. A. Petersson, H. Nakatsuji, X. Li, M. Caricato, A. V. Marenich, 
 J. Bloino, B. G. Janesko, R. Gomperts, B. Mennucci, H. P. Hratchian, 
 J. V. Ortiz, A. F. Izmaylov, J. L. Sonnenberg, D. Williams-Young, 
 F. Ding, F. Lipparini, F. Egidi, J. Goings, B. Peng, A. Petrone, 
 T. Henderson, D. Ranasinghe, V. G. Zakrzewski, J. Gao, N. Rega, 
 G. Zheng, W. Liang, M. Hada, M. Ehara, K. Toyota, R. Fukuda, 
 J. Hasegawa, M. Ishida, T. Nakajima, Y. Honda, O. Kitao, H. Nakai, 
 T. Vreven, K. Throssell, J. A. Montgomery, Jr., J. E. Peralta, 
 F. Ogliaro, M. J. Bearpark, J. J. Heyd, E. N. Brothers, K. N. Kudin, 
 V. N. Staroverov, T. A. Keith, R. Kobayashi, J. Normand, 
 K. Raghavachari, A. P. Rendell, J. C. Burant, S. S. Iyengar, 
 J. Tomasi, M. Cossi, J. M. Millam, M. Klene, C. Adamo, R. Cammi, 
 J. W. Ochterski, R. L. Martin, K. Morokuma, O. Farkas, 
 J. B. Foresman, and D. J. Fox, Gaussian, Inc., Wallingford CT, 2016.
 
 *******************************************
 Gaussian DV:  ES64L-GDVRevI.10+ 27-Mar-2017
                 21-Feb-2019 
 *******************************************
 %chk=methylene_ex
 --------------------------------------------------------
 # CAM-B3LYP/6-31+G* TDA(Root=1) opt freq(SaveNM,HPModes)
 --------------------------------------------------------
 1/18=20,19=15,26=3,38=1/1,3;
 2/9=110,12=2,17=6,18=5,40=1/2;
 3/5=1,6=6,7=11,11=9,25=1,30=1,71=1,74=-40/1,2,3,8;
 4//1;
 5/5=2,38=5/2;
 8/6=1,10=2,107=1/1;
 9/8=1,15=2,42=1/14;
 10/5=4,28=1/2;
 6/7=2,8=2,9=2,10=2/1;
 7/12=6,13=5,14=1,92=1/1,2,3,16;
 1/18=20,19=15,26=3/3(2);
 2/9=110/2;
 99//99;
 2/9=110/2;
 3/5=1,6=6,7=11,11=9,25=1,30=1,71=1,74=-40/1,2,3,8;
 4/5=5,16=3,69=1/1;
 5/5=2,38=5/2;
 8/6=1,10=2,107=1/1;
 9/8=1,15=2,42=1,49=4/14;
 10/5=4,28=1/2;
 7/12=6,13=5,14=1,92=1/1,2,3,16;
 1/18=20,19=15,26=3/3(-8);
 2/9=110/2;
 6/7=2,8=2,9=2,10=2/1;
 99/9=10/99;
 --------------------------
 pCT- Geometry Optimization
 --------------------------
 Symbolic Z-matrix:
 Charge =  1 Multiplicity = 1
 S                     0.01909  -1.49123   0.06008 
 N                    -5.00691  -0.71971   0.03452 
 N                     5.03037  -0.63167  -0.0033 
 N                    -0.00885   1.62522  -0.09007 
 C                    -1.35473  -0.4281    0.01257 
 C                     1.37364  -0.40426   0.0021 
 C                    -1.17684   0.99281  -0.05597 
 C                     1.17022   1.01328  -0.06508 
 C                    -3.77501  -0.17876   0.00696 
 C                     3.78903  -0.11244  -0.02218 
 C                    -2.61436  -0.99087   0.04304 
 C                     2.64312  -0.94484   0.02272 
 C                    -2.35943   1.79357  -0.09023 
 C                     2.33822   1.83472  -0.10903 
 C                    -3.60161   1.24633  -0.06056 
 C                     3.58995   1.30936  -0.08924 
 C                    -5.17587  -2.16741   0.10092 
 C                    -6.19779   0.12648  -0.00431 
 C                     6.2059    0.23508  -0.05515 
 C                     5.22506  -2.07632   0.0599 
 H                    -2.70615  -2.06808   0.09467 
 H                     2.75429  -2.02027   0.07333 
 H                    -2.22142   2.86829  -0.14131 
 H                     2.18086   2.90681  -0.15945 
 H                    -4.46581   1.89578  -0.08871 
 H                     4.44236   1.97383  -0.12505 
 H                    -4.72921  -2.57548   1.01384 
 H                    -4.7251   -2.65708  -0.76874 
 H                    -6.23827  -2.40216   0.1091 
 H                    -6.23474   0.71806  -0.92449 
 H                    -6.23515   0.79951   0.85806 
 H                    -7.08132  -0.50797   0.02435 
 H                     6.23611   0.91473   0.80218 
 H                     6.22727   0.8206   -0.97975 
 H                     7.10067  -0.38343  -0.0266 
 H                     4.78782  -2.49344   0.97318 
 H                     6.29142  -2.2926    0.06533 
 H                     4.7807   -2.5725   -0.80945 
 

 GradGradGradGradGradGradGradGradGradGradGradGradGradGradGradGradGradGrad
 Berny optimization.
 Initialization pass.
                           ----------------------------
                           !    Initial Parameters    !
                           ! (Angstroms and Degrees)  !
 --------------------------                            --------------------------
 ! Name  Definition              Value          Derivative Info.                !
 --------------------------------------------------------------------------------
 ! R1    R(1,5)                  1.7378         estimate D2E/DX2                !
 ! R2    R(1,6)                  1.7377         estimate D2E/DX2                !
 ! R3    R(2,9)                  1.3457         estimate D2E/DX2                !
 ! R4    R(2,17)                 1.459          estimate D2E/DX2                !
 ! R5    R(2,18)                 1.4614         estimate D2E/DX2                !
 ! R6    R(3,10)                 1.3457         estimate D2E/DX2                !
 ! R7    R(3,19)                 1.4614         estimate D2E/DX2                !
 ! R8    R(3,20)                 1.4591         estimate D2E/DX2                !
 ! R9    R(4,7)                  1.3286         estimate D2E/DX2                !
 ! R10   R(4,8)                  1.3286         estimate D2E/DX2                !
 ! R11   R(5,7)                  1.4336         estimate D2E/DX2                !
 ! R12   R(5,11)                 1.38           estimate D2E/DX2                !
 ! R13   R(6,8)                  1.4336         estimate D2E/DX2                !
 ! R14   R(6,12)                 1.3799         estimate D2E/DX2                !
 ! R15   R(7,13)                 1.4286         estimate D2E/DX2                !
 ! R16   R(8,14)                 1.4286         estimate D2E/DX2                !
 ! R17   R(9,11)                 1.417          estimate D2E/DX2                !
 ! R18   R(9,15)                 1.4372         estimate D2E/DX2                !
 ! R19   R(10,12)                1.417          estimate D2E/DX2                !
 ! R20   R(10,16)                1.4372         estimate D2E/DX2                !
 ! R21   R(11,21)                1.0823         estimate D2E/DX2                !
 ! R22   R(12,22)                1.0823         estimate D2E/DX2                !
 ! R23   R(13,15)                1.3577         estimate D2E/DX2                !
 ! R24   R(13,23)                1.0848         estimate D2E/DX2                !
 ! R25   R(14,16)                1.3577         estimate D2E/DX2                !
 ! R26   R(14,24)                1.0847         estimate D2E/DX2                !
 ! R27   R(15,25)                1.0814         estimate D2E/DX2                !
 ! R28   R(16,26)                1.0814         estimate D2E/DX2                !
 ! R29   R(17,27)                1.0952         estimate D2E/DX2                !
 ! R30   R(17,28)                1.0951         estimate D2E/DX2                !
 ! R31   R(17,29)                1.0881         estimate D2E/DX2                !
 ! R32   R(18,30)                1.0946         estimate D2E/DX2                !
 ! R33   R(18,31)                1.0946         estimate D2E/DX2                !
 ! R34   R(18,32)                1.0881         estimate D2E/DX2                !
 ! R35   R(19,33)                1.0945         estimate D2E/DX2                !
 ! R36   R(19,34)                1.0946         estimate D2E/DX2                !
 ! R37   R(19,35)                1.0881         estimate D2E/DX2                !
 ! R38   R(20,36)                1.0951         estimate D2E/DX2                !
 ! R39   R(20,37)                1.0881         estimate D2E/DX2                !
 ! R40   R(20,38)                1.0952         estimate D2E/DX2                !
 ! A1    A(5,1,6)              103.4537         estimate D2E/DX2                !
 ! A2    A(9,2,17)             120.3837         estimate D2E/DX2                !
 ! A3    A(9,2,18)             120.8411         estimate D2E/DX2                !
 ! A4    A(17,2,18)            118.775          estimate D2E/DX2                !
 ! A5    A(10,3,19)            120.8411         estimate D2E/DX2                !
 ! A6    A(10,3,20)            120.3792         estimate D2E/DX2                !
 ! A7    A(19,3,20)            118.7782         estimate D2E/DX2                !
 ! A8    A(7,4,8)              124.0844         estimate D2E/DX2                !
 ! A9    A(1,5,7)              120.6341         estimate D2E/DX2                !
 ! A10   A(1,5,11)             118.1336         estimate D2E/DX2                !
 ! A11   A(7,5,11)             121.2323         estimate D2E/DX2                !
 ! A12   A(1,6,8)              120.6268         estimate D2E/DX2                !
 ! A13   A(1,6,12)             118.1362         estimate D2E/DX2                !
 ! A14   A(8,6,12)             121.237          estimate D2E/DX2                !
 ! A15   A(4,7,5)              125.5953         estimate D2E/DX2                !
 ! A16   A(4,7,13)             117.4059         estimate D2E/DX2                !
 ! A17   A(5,7,13)             116.9987         estimate D2E/DX2                !
 ! A18   A(4,8,6)              125.6056         estimate D2E/DX2                !
 ! A19   A(4,8,14)             117.3955         estimate D2E/DX2                !
 ! A20   A(6,8,14)             116.9988         estimate D2E/DX2                !
 ! A21   A(2,9,11)             121.259          estimate D2E/DX2                !
 ! A22   A(2,9,15)             120.664          estimate D2E/DX2                !
 ! A23   A(11,9,15)            118.077          estimate D2E/DX2                !
 ! A24   A(3,10,12)            121.2558         estimate D2E/DX2                !
 ! A25   A(3,10,16)            120.6725         estimate D2E/DX2                !
 ! A26   A(12,10,16)           118.0717         estimate D2E/DX2                !
 ! A27   A(5,11,9)             120.8888         estimate D2E/DX2                !
 ! A28   A(5,11,21)            118.9694         estimate D2E/DX2                !
 ! A29   A(9,11,21)            120.1418         estimate D2E/DX2                !
 ! A30   A(6,12,10)            120.8867         estimate D2E/DX2                !
 ! A31   A(6,12,22)            118.9748         estimate D2E/DX2                !
 ! A32   A(10,12,22)           120.1385         estimate D2E/DX2                !
 ! A33   A(7,13,15)            122.0672         estimate D2E/DX2                !
 ! A34   A(7,13,23)            116.8172         estimate D2E/DX2                !
 ! A35   A(15,13,23)           121.1157         estimate D2E/DX2                !
 ! A36   A(8,14,16)            122.0624         estimate D2E/DX2                !
 ! A37   A(8,14,24)            116.8153         estimate D2E/DX2                !
 ! A38   A(16,14,24)           121.1224         estimate D2E/DX2                !
 ! A39   A(9,15,13)            120.7359         estimate D2E/DX2                !
 ! A40   A(9,15,25)            120.0205         estimate D2E/DX2                !
 ! A41   A(13,15,25)           119.2436         estimate D2E/DX2                !
 ! A42   A(10,16,14)           120.7434         estimate D2E/DX2                !
 ! A43   A(10,16,26)           120.0144         estimate D2E/DX2                !
 ! A44   A(14,16,26)           119.2423         estimate D2E/DX2                !
 ! A45   A(2,17,27)            111.1261         estimate D2E/DX2                !
 ! A46   A(2,17,28)            111.0916         estimate D2E/DX2                !
 ! A47   A(2,17,29)            109.1161         estimate D2E/DX2                !
 ! A48   A(27,17,28)           109.1161         estimate D2E/DX2                !
 ! A49   A(27,17,29)           108.1533         estimate D2E/DX2                !
 ! A50   A(28,17,29)           108.144          estimate D2E/DX2                !
 ! A51   A(2,18,30)            111.2717         estimate D2E/DX2                !
 ! A52   A(2,18,31)            111.2795         estimate D2E/DX2                !
 ! A53   A(2,18,32)            108.8659         estimate D2E/DX2                !
 ! A54   A(30,18,31)           109.1999         estimate D2E/DX2                !
 ! A55   A(30,18,32)           108.0516         estimate D2E/DX2                !
 ! A56   A(31,18,32)           108.063          estimate D2E/DX2                !
 ! A57   A(3,19,33)            111.2666         estimate D2E/DX2                !
 ! A58   A(3,19,34)            111.2796         estimate D2E/DX2                !
 ! A59   A(3,19,35)            108.8682         estimate D2E/DX2                !
 ! A60   A(33,19,34)           109.2046         estimate D2E/DX2                !
 ! A61   A(33,19,35)           108.0434         estimate D2E/DX2                !
 ! A62   A(34,19,35)           108.0694         estimate D2E/DX2                !
 ! A63   A(3,20,36)            111.0985         estimate D2E/DX2                !
 ! A64   A(3,20,37)            109.1348         estimate D2E/DX2                !
 ! A65   A(3,20,38)            111.1038         estimate D2E/DX2                !
 ! A66   A(36,20,37)           108.145          estimate D2E/DX2                !
 ! A67   A(36,20,38)           109.1128         estimate D2E/DX2                !
 ! A68   A(37,20,38)           108.1528         estimate D2E/DX2                !
 ! D1    D(6,1,5,7)             -0.0844         estimate D2E/DX2                !
 ! D2    D(6,1,5,11)           179.9313         estimate D2E/DX2                !
 ! D3    D(5,1,6,8)              0.0799         estimate D2E/DX2                !
 ! D4    D(5,1,6,12)          -179.9256         estimate D2E/DX2                !
 ! D5    D(17,2,9,11)           -0.0835         estimate D2E/DX2                !
 ! D6    D(17,2,9,15)          179.9012         estimate D2E/DX2                !
 ! D7    D(18,2,9,11)         -179.945          estimate D2E/DX2                !
 ! D8    D(18,2,9,15)            0.0397         estimate D2E/DX2                !
 ! D9    D(9,2,17,27)           61.1078         estimate D2E/DX2                !
 ! D10   D(9,2,17,28)          -60.5819         estimate D2E/DX2                !
 ! D11   D(9,2,17,29)         -179.7207         estimate D2E/DX2                !
 ! D12   D(18,2,17,27)        -119.0278         estimate D2E/DX2                !
 ! D13   D(18,2,17,28)         119.2825         estimate D2E/DX2                !
 ! D14   D(18,2,17,29)           0.1437         estimate D2E/DX2                !
 ! D15   D(9,2,18,30)           60.8638         estimate D2E/DX2                !
 ! D16   D(9,2,18,31)          -61.1658         estimate D2E/DX2                !
 ! D17   D(9,2,18,32)          179.8396         estimate D2E/DX2                !
 ! D18   D(17,2,18,30)        -118.9998         estimate D2E/DX2                !
 ! D19   D(17,2,18,31)         118.9705         estimate D2E/DX2                !
 ! D20   D(17,2,18,32)          -0.0241         estimate D2E/DX2                !
 ! D21   D(19,3,10,12)         179.7638         estimate D2E/DX2                !
 ! D22   D(19,3,10,16)          -0.2164         estimate D2E/DX2                !
 ! D23   D(20,3,10,12)           0.2064         estimate D2E/DX2                !
 ! D24   D(20,3,10,16)        -179.7738         estimate D2E/DX2                !
 ! D25   D(10,3,19,33)          60.9024         estimate D2E/DX2                !
 ! D26   D(10,3,19,34)         -61.1297         estimate D2E/DX2                !
 ! D27   D(10,3,19,35)         179.8664         estimate D2E/DX2                !
 ! D28   D(20,3,19,33)        -119.5332         estimate D2E/DX2                !
 ! D29   D(20,3,19,34)         118.4347         estimate D2E/DX2                !
 ! D30   D(20,3,19,35)          -0.5692         estimate D2E/DX2                !
 ! D31   D(10,3,20,36)         -60.8792         estimate D2E/DX2                !
 ! D32   D(10,3,20,37)         179.9646         estimate D2E/DX2                !
 ! D33   D(10,3,20,38)          60.7956         estimate D2E/DX2                !
 ! D34   D(19,3,20,36)         119.5543         estimate D2E/DX2                !
 ! D35   D(19,3,20,37)           0.3982         estimate D2E/DX2                !
 ! D36   D(19,3,20,38)        -118.7708         estimate D2E/DX2                !
 ! D37   D(8,4,7,5)              0.0203         estimate D2E/DX2                !
 ! D38   D(8,4,7,13)          -179.9858         estimate D2E/DX2                !
 ! D39   D(7,4,8,6)             -0.0258         estimate D2E/DX2                !
 ! D40   D(7,4,8,14)           179.9605         estimate D2E/DX2                !
 ! D41   D(1,5,7,4)              0.0455         estimate D2E/DX2                !
 ! D42   D(1,5,7,13)          -179.9484         estimate D2E/DX2                !
 ! D43   D(11,5,7,4)          -179.9706         estimate D2E/DX2                !
 ! D44   D(11,5,7,13)            0.0354         estimate D2E/DX2                !
 ! D45   D(1,5,11,9)          -179.9961         estimate D2E/DX2                !
 ! D46   D(1,5,11,21)           -0.0282         estimate D2E/DX2                !
 ! D47   D(7,5,11,9)             0.0197         estimate D2E/DX2                !
 ! D48   D(7,5,11,21)          179.9876         estimate D2E/DX2                !
 ! D49   D(1,6,8,4)             -0.0353         estimate D2E/DX2                !
 ! D50   D(1,6,8,14)           179.9783         estimate D2E/DX2                !
 ! D51   D(12,6,8,4)           179.9703         estimate D2E/DX2                !
 ! D52   D(12,6,8,14)           -0.016          estimate D2E/DX2                !
 ! D53   D(1,6,12,10)          179.9982         estimate D2E/DX2                !
 ! D54   D(1,6,12,22)            0.038          estimate D2E/DX2                !
 ! D55   D(8,6,12,10)           -0.0073         estimate D2E/DX2                !
 ! D56   D(8,6,12,22)         -179.9675         estimate D2E/DX2                !
 ! D57   D(4,7,13,15)          179.9699         estimate D2E/DX2                !
 ! D58   D(4,7,13,23)           -0.0402         estimate D2E/DX2                !
 ! D59   D(5,7,13,15)           -0.0356         estimate D2E/DX2                !
 ! D60   D(5,7,13,23)          179.9543         estimate D2E/DX2                !
 ! D61   D(4,8,14,16)         -179.9626         estimate D2E/DX2                !
 ! D62   D(4,8,14,24)            0.0346         estimate D2E/DX2                !
 ! D63   D(6,8,14,16)            0.0249         estimate D2E/DX2                !
 ! D64   D(6,8,14,24)         -179.9779         estimate D2E/DX2                !
 ! D65   D(2,9,11,5)           179.9113         estimate D2E/DX2                !
 ! D66   D(2,9,11,21)           -0.0562         estimate D2E/DX2                !
 ! D67   D(15,9,11,5)           -0.0738         estimate D2E/DX2                !
 ! D68   D(15,9,11,21)         179.9587         estimate D2E/DX2                !
 ! D69   D(2,9,15,13)         -179.9114         estimate D2E/DX2                !
 ! D70   D(2,9,15,25)            0.0647         estimate D2E/DX2                !
 ! D71   D(11,9,15,13)           0.0738         estimate D2E/DX2                !
 ! D72   D(11,9,15,25)        -179.9501         estimate D2E/DX2                !
 ! D73   D(3,10,12,6)         -179.9583         estimate D2E/DX2                !
 ! D74   D(3,10,12,22)           0.0014         estimate D2E/DX2                !
 ! D75   D(16,10,12,6)           0.0223         estimate D2E/DX2                !
 ! D76   D(16,10,12,22)        179.982          estimate D2E/DX2                !
 ! D77   D(3,10,16,14)         179.9671         estimate D2E/DX2                !
 ! D78   D(3,10,16,26)          -0.0043         estimate D2E/DX2                !
 ! D79   D(12,10,16,14)         -0.0136         estimate D2E/DX2                !
 ! D80   D(12,10,16,26)       -179.985          estimate D2E/DX2                !
 ! D81   D(7,13,15,9)           -0.0191         estimate D2E/DX2                !
 ! D82   D(7,13,15,25)        -179.9954         estimate D2E/DX2                !
 ! D83   D(23,13,15,9)         179.9914         estimate D2E/DX2                !
 ! D84   D(23,13,15,25)          0.0152         estimate D2E/DX2                !
 ! D85   D(8,14,16,10)          -0.0102         estimate D2E/DX2                !
 ! D86   D(8,14,16,26)         179.9614         estimate D2E/DX2                !
 ! D87   D(24,14,16,10)        179.9927         estimate D2E/DX2                !
 ! D88   D(24,14,16,26)         -0.0357         estimate D2E/DX2                !
 --------------------------------------------------------------------------------
 Trust Radius=3.00D-01 FncErr=1.00D-07 GrdErr=1.00D-06 EigMax=2.50D+02 EigMin=1.00D-04
 Number of steps in this run=    206 maximum allowed number of steps=    228.
 GradGradGradGradGradGradGradGradGradGradGradGradGradGradGradGradGradGrad

                          Input orientation:                          
 ---------------------------------------------------------------------
 Center     Atomic      Atomic             Coordinates (Angstroms)
 Number     Number       Type             X           Y           Z
 ---------------------------------------------------------------------
      1         16           0        0.019087   -1.491228    0.060078
      2          7           0       -5.006914   -0.719712    0.034518
      3          7           0        5.030373   -0.631667   -0.003300
      4          7           0       -0.008854    1.625216   -0.090067
      5          6           0       -1.354731   -0.428100    0.012574
      6          6           0        1.373644   -0.404264    0.002096
      7          6           0       -1.176840    0.992813   -0.055970
      8          6           0        1.170219    1.013277   -0.065079
      9          6           0       -3.775012   -0.178764    0.006963
     10          6           0        3.789034   -0.112441   -0.022180
     11          6           0       -2.614362   -0.990868    0.043037
     12          6           0        2.643122   -0.944842    0.022721
     13          6           0       -2.359433    1.793570   -0.090233
     14          6           0        2.338217    1.834722   -0.109034
     15          6           0       -3.601611    1.246333   -0.060557
     16          6           0        3.589954    1.309362   -0.089240
     17          6           0       -5.175867   -2.167406    0.100925
     18          6           0       -6.197790    0.126482   -0.004308
     19          6           0        6.205899    0.235077   -0.055150
     20          6           0        5.225062   -2.076322    0.059898
     21          1           0       -2.706153   -2.068079    0.094675
     22          1           0        2.754288   -2.020272    0.073326
     23          1           0       -2.221420    2.868293   -0.141315
     24          1           0        2.180860    2.906811   -0.159450
     25          1           0       -4.465814    1.895779   -0.088712
     26          1           0        4.442363    1.973827   -0.125048
     27          1           0       -4.729214   -2.575476    1.013836
     28          1           0       -4.725100   -2.657081   -0.768739
     29          1           0       -6.238269   -2.402155    0.109104
     30          1           0       -6.234741    0.718062   -0.924485
     31          1           0       -6.235148    0.799513    0.858059
     32          1           0       -7.081317   -0.507970    0.024354
     33          1           0        6.236109    0.914734    0.802180
     34          1           0        6.227270    0.820604   -0.979746
     35          1           0        7.100667   -0.383430   -0.026600
     36          1           0        4.787820   -2.493438    0.973184
     37          1           0        6.291415   -2.292602    0.065329
     38          1           0        4.780695   -2.572505   -0.809446
 ---------------------------------------------------------------------
                    Distance matrix (angstroms):
                    1          2          3          4          5
     1  S    0.000000
     2  N    5.084936   0.000000
     3  N    5.084865  10.037744   0.000000
     4  N    3.120184   5.522211   5.522214   0.000000
     5  C    1.737779   3.663872   6.388368   2.457240   0.000000
     6  C    1.737722   6.388433   3.663797   2.457353   2.728499
     7  C    2.759378   4.196474   6.416479   1.328642   1.433644
     8  C    2.759224   6.416396   4.196480   1.328648   2.908431
     9  C    4.015043   1.345721   8.817031   4.177045   2.433097
    10  C    4.015011   8.817068   1.345687   4.177082   5.153558
    11  C    2.680616   2.407883   7.653309   3.694630   1.379966
    12  C    2.680577   7.653356   2.407846   3.694712   4.031123
    13  C    4.058306   3.652575   7.778082   2.356600   2.440453
    14  C    4.058190   7.777961   3.652664   2.356479   4.332784
    15  C    4.540732   2.418521   8.834099   3.612801   2.803131
    16  C    4.540560   8.833945   2.418633   3.612642   5.242046
    17  C    5.238934   1.459032  10.321661   6.412370   4.199294
    18  C    6.424227   1.461416  11.253729   6.368398   4.874737
    19  C    6.424177  11.253747   1.461436   6.368427   7.589962
    20  C    5.238750  10.321548   1.459084   6.412312   6.783255
    21  H    2.785837   2.667436   7.869353   4.577115   2.126644
    22  H    2.785927   7.869512   2.667332   4.577252   4.407124
    23  H    4.905697   4.545731   8.053401   2.538369   3.411897
    24  H    4.905528   8.053160   4.545870   2.538138   4.863294
    25  H    5.622126   2.673718   9.827149   4.465166   3.884522
    26  H    5.621944   9.826975   2.673795   4.464984   6.276503
    27  H    4.963025   2.116610  10.003125   6.414532   4.123213
    28  H    4.955145   2.116138   9.992870   6.406375   4.115603
    29  H    6.323504   2.086244  11.407434   7.420580   5.268316
    30  H    6.705273   2.120010  11.383020   6.346720   5.099634
    31  H    6.708183   2.120100  11.388686   6.351966   5.102975
    32  H    7.168251   2.085207  12.112354   7.388052   5.727155
    33  H    6.707513  11.387110   2.119895   6.348264   7.749035
    34  H    6.705769  11.384559   2.120165   6.350446   7.747948
    35  H    7.168229  12.112404   2.085254   7.388097   8.455607
    36  H    4.957721   9.998200   2.116257   6.411076   6.551284
    37  H    6.323316  11.407330   2.086539   7.420703   7.870369
    38  H    4.959651   9.997120   2.116380   6.409223   6.551156
                    6          7          8          9         10
     6  C    0.000000
     7  C    2.908636   0.000000
     8  C    1.433638   2.347166   0.000000
     9  C    5.153594   2.850798   5.087382   0.000000
    10  C    2.433075   5.087497   2.850838   7.564393   0.000000
    11  C    4.031126   2.451788   4.283847   1.417012   6.463696
    12  C    1.379936   4.284017   2.451812   6.463711   1.417047
    13  C    4.332997   1.428605   3.614959   2.429694   6.437480
    14  C    2.440453   3.614865   1.428609   6.437325   2.429785
    15  C    5.242286   2.437993   4.777520   1.437194   7.514610
    16  C    2.803013   4.777408   2.437902   7.514419   1.437238
    17  C    6.783401   5.099394   7.100500   2.434322   9.198232
    18  C    7.590016   5.095403   7.421432   2.441957   9.989697
    19  C    4.874702   7.421523   5.095466   9.989680   2.441945
    20  C    4.199111   7.100518   5.099313   9.198090   2.434284
    21  H    4.406994   3.424989   4.954446   2.172479   6.784219
    22  H    2.126672   4.954711   3.425034   6.784344   2.172473
    23  H    4.863609   2.148455   3.866538   3.423476   6.710032
    24  H    3.411878   3.866296   2.148435   6.709760   3.423588
    25  H    6.276760   3.410832   5.704756   2.188627   8.495875
    26  H    3.884394   5.704612   3.410744   8.495665   2.188593
    27  H    6.556116   5.147478   6.989028   2.769210   8.927509
    28  H    6.547064   5.140030   6.980075   2.765219   8.917567
    29  H    7.870467   6.096813   8.159731   3.319870  10.286245
    30  H    7.746334   5.139277   7.460506   2.778877  10.098512
    31  H    7.750837   5.143860   7.465744   2.780946  10.103994
    32  H    8.455627   6.092754   8.391069   3.322700  10.877644
    33  H    5.101319   7.462864   5.140535  10.102013   2.778999
    34  H    5.101176   7.463502   5.142714  10.100395   2.780738
    35  H    5.727133   8.391188   6.092823  10.877657   3.322706
    36  H    4.118769   6.985003   5.144131   8.922634   2.767213
    37  H    5.268234   8.159871   6.096926  10.286140   3.320041
    38  H    4.119207   6.983655   5.142709   8.921695   2.766784
                   11         12         13         14         15
    11  C    0.000000
    12  C    5.257725   0.000000
    13  C    2.799258   5.704140   0.000000
    14  C    5.703957   2.799339   4.697867   0.000000
    15  C    2.447542   6.618525   1.357703   5.969096   0.000000
    16  C    6.618315   2.447542   5.969058   1.357660   7.191898
    17  C    2.819379   7.914377   4.863967   8.516018   3.762708
    18  C    3.753887   8.905626   4.185636   8.705887   2.827963
    19  C    8.905593   3.753885   8.706035   4.185777   9.859509
    20  C    7.914231   2.819227   8.516053   4.864018   9.432110
    21  H    1.082347   5.466405   3.881590   6.381146   3.436753
    22  H    5.466534   1.082344   6.381402   3.881668   7.147453
    23  H    3.883493   6.183096   1.084752   4.675426   2.131245
    24  H    6.182804   3.883569   4.675292   1.084748   6.016971
    25  H    3.431904   7.656273   2.108861   6.804336   1.081397
    26  H    7.656046   3.431870   6.804272   2.108800   8.077061
    27  H    2.815321   7.615288   5.091502   8.405907   4.126988
    28  H    2.808996   7.605844   5.085769   8.396544   4.123152
    29  H    3.889576   9.000574   5.717449   9.568429   4.504688
    30  H    4.118699   9.081789   4.107397   8.683749   2.821137
    31  H    4.120657   9.086487   4.112004   8.689621   2.824716
    32  H    4.493020   9.734248   5.254181   9.707401   3.897838
    33  H    9.085068   4.120090   8.686317   4.107341   9.881043
    34  H    9.083059   4.119206   8.687310   4.112336   9.880944
    35  H    9.734250   4.493031   9.707568   5.254325  10.825712
    36  H    7.610203   2.810918   8.401935   5.089668   9.243217
    37  H    9.000438   3.889514   9.568604   5.717778  10.507706
    38  H    7.610202   2.812651   8.400078   5.087231   9.241613
                   16         17         18         19         20
    16  C    0.000000
    17  C    9.432056   0.000000
    18  C    9.859327   2.513429   0.000000
    19  C    2.828148  11.633610  12.404268   0.000000
    20  C    3.762801  10.401408  11.633486   2.513532   0.000000
    21  H    7.147160   2.471718   4.125218   9.206066   7.931295
    22  H    3.436747   7.931568   9.206209   4.125133   2.471446
    23  H    6.017063   5.843432   4.831957   8.829551   8.940906
    24  H    2.131272   8.940744   8.829274   4.832182   5.843534
    25  H    8.077084   4.129117   2.477352  10.800210  10.474385
    26  H    1.081387  10.474312  10.800005   2.477539   4.129229
    27  H    9.247556   1.095183   3.239430  11.341016  10.012330
    28  H    9.237667   1.095120   3.240585  11.329630  10.001481
    29  H   10.507553   1.088059   2.531503  12.721607  11.468066
    30  H    9.877848   3.240156   1.094558  12.480326  11.836581
    31  H    9.883822   3.240053   1.094552  12.487281  11.842461
    32  H   10.825508   2.527911   1.088105  13.308214  12.405964
    33  H    2.820018  11.841645  12.484935   1.094468   3.243396
    34  H    2.826185  11.837549  12.482603   1.094613   3.236891
    35  H    3.898022  12.406132  13.308248   1.088107   2.528094
    36  H    4.126126  10.007107  11.335921   3.242408   1.095105
    37  H    4.505101  11.468021  12.721520   2.531993   1.088080
    38  H    4.123766  10.006298  11.334015   3.237697   1.095180
                   21         22         23         24         25
    21  H    0.000000
    22  H    5.460692   0.000000
    23  H    4.965726   6.978669   0.000000
    24  H    6.978324   4.965799   4.402486   0.000000
    25  H    4.340762   8.215327   2.446601   6.723502   0.000000
    26  H    8.215021   4.340712   6.723566   2.446638   8.908593
    27  H    2.279273   7.562779   6.103935   8.898382   4.612712
    28  H    2.273445   7.553532   6.098510   8.889342   4.610661
    29  H    3.547909   9.000733   6.631396   9.956856   4.653275
    30  H    4.610011   9.449695   4.619912   8.729160   2.283557
    31  H    4.610819   9.453939   4.624782   8.735286   2.286638
    32  H    4.645530   9.951311   5.919898   9.873320   3.554103
    33  H    9.453137   4.611786   8.731345   4.619323  10.783659
    34  H    9.450128   4.608811   8.733634   4.625860  10.783876
    35  H    9.951205   4.645455   9.873611   5.920122  11.789069
    36  H    7.557271   2.273518   8.894927   6.102605  10.296728
    37  H    9.000417   3.547604   9.957204   6.631824  11.544880
    38  H    7.558093   2.278283   8.892598   6.099553  10.294802
                   26         27         28         29         30
    26  H    0.000000
    27  H   10.301021   0.000000
    28  H   10.290871   1.784447   0.000000
    29  H   11.544693   1.768001   1.767845   0.000000
    30  H   10.780379   4.107444   3.700657   3.286956   0.000000
    31  H   10.786786   3.699007   4.107890   3.288104   1.784404
    32  H   11.788844   3.284211   3.286250   2.075055   1.766393
    33  H    2.280122  11.509331  11.635023  12.926416  12.591352
    34  H    2.290486  11.642692  11.493181  12.921356  12.462555
    35  H    3.554285  12.076161  12.065199  13.491512  13.410913
    36  H    4.613233   9.517475   9.672472  11.060272  11.636655
    37  H    4.653779  11.064988  11.054054  12.530240  12.920852
    38  H    4.609990   9.683116   9.506258  11.058496  11.496995
                   31         32         33         34         35
    31  H    0.000000
    32  H    1.766516   0.000000
    33  H   12.471915  13.415773   0.000000
    34  H   12.597215  13.412376   1.784432   0.000000
    35  H   13.417375  14.182623   1.766230   1.766638   0.000000
    36  H   11.504895  12.071404   3.707077   4.107167   3.286482
    37  H   12.926886  13.491352   3.291355   3.284562   2.075639
    38  H   11.640441  12.069170   4.108090   3.692529   3.284382
                   36         37         38
    36  H    0.000000
    37  H    1.767861   0.000000
    38  H    1.784396   1.768008   0.000000
 Stoichiometry    C16H18N3S(1+)
 Framework group  C1[X(C16H18N3S)]
 Deg. of freedom   108
 Full point group                 C1      NOp   1
 Largest Abelian subgroup         C1      NOp   1
 Largest concise Abelian subgroup C1      NOp   1
                         Standard orientation:                         
 ---------------------------------------------------------------------
 Center     Atomic      Atomic             Coordinates (Angstroms)
 Number     Number       Type             X           Y           Z
 ---------------------------------------------------------------------
      1         16           0       -0.000058   -1.350455   -0.005364
      2          7           0        5.018853   -0.533722    0.001895
      3          7           0       -5.018890   -0.533668   -0.000125
      4          7           0       -0.000004    1.769727   -0.001251
      5          6           0        1.364199   -0.274039   -0.002823
      6          6           0       -1.364301   -0.274112   -0.003170
      7          6           0        1.173602    1.146879   -0.001539
      8          6           0       -1.173564    1.146781   -0.001740
      9          6           0        3.782162   -0.003103   -0.000295
     10          6           0       -3.782230   -0.003060   -0.001174
     11          6           0        2.628821   -0.826342   -0.002418
     12          6           0       -2.628904   -0.826381   -0.002965
     13          6           0        2.348992    1.958895   -0.000616
     14          6           0       -2.348876    1.958916   -0.000459
     15          6           0        3.596023    1.421986   -0.000213
     16          6           0       -3.595876    1.422045   -0.000073
     17          6           0        5.200739   -1.981371    0.003968
     18          6           0        6.202110    0.323966    0.005278
     19          6           0       -6.202158    0.324017    0.006893
     20          6           0       -5.200669   -1.981379    0.003717
     21          1           0        2.730245   -1.903926   -0.003218
     22          1           0       -2.730447   -1.903951   -0.003539
     23          1           0        2.201372    3.033555   -0.000418
     24          1           0       -2.201114    3.033553    0.000247
     25          1           0        4.454387    2.079732    0.000564
     26          1           0       -4.454206    2.079818    0.001544
     27          1           0        4.761303   -2.435695   -0.890411
     28          1           0        4.750830   -2.433813    0.894005
     29          1           0        6.265180   -2.206746    0.010569
     30          1           0        6.230228    0.958272    0.896862
     31          1           0        6.236996    0.956204   -0.887528
     32          1           0        7.091267   -0.303215    0.009503
     33          1           0       -6.234916    0.962506   -0.881430
     34          1           0       -6.232324    0.951963    0.902969
     35          1           0       -7.091355   -0.303117    0.004164
     36          1           0       -4.756171   -2.436861   -0.887469
     37          1           0       -6.265058   -2.207194    0.004633
     38          1           0       -4.755428   -2.432341    0.896921
 ---------------------------------------------------------------------
 Rotational constants (GHZ):           1.0622065           0.1327513           0.1183585
 Standard basis: 6-31+G(d) (6D, 7F)
 There are   420 symmetry adapted cartesian basis functions of A   symmetry.
 There are   420 symmetry adapted basis functions of A   symmetry.
   420 basis functions,   736 primitive gaussians,   420 cartesian basis functions
    75 alpha electrons       75 beta electrons
       nuclear repulsion energy      1586.6419063708 Hartrees.
 NAtoms=   38 NActive=   38 NUniq=   38 SFac= 1.00D+00 NAtFMM=   60 NAOKFM=F Big=F
 Integral buffers will be    131072 words long.
 Raffenetti 1 integral format.
 Two-electron integral symmetry is turned on.
 One-electron integrals computed using PRISM.
 NBasis=   420 RedAO= T EigKep=  1.23D-06  NBF=   420
 NBsUse=   417 1.00D-06 EigRej=  2.61D-07 NBFU=   417
 ExpMin= 4.05D-02 ExpMax= 2.19D+04 ExpMxC= 3.30D+03 IAcc=3 IRadAn=         5 AccDes= 0.00D+00
 Harris functional with IExCor=20419 and IRadAn=       5 diagonalized for initial guess.
 HarFok:  IExCor=20419 AccDes= 0.00D+00 IRadAn=         5 IDoV= 1 UseB2=F ITyADJ=14
 ICtDFT=  3500011 ScaDFX=  1.000000  1.000000  1.000000  1.000000
 FoFCou: FMM=F IPFlag=           0 FMFlag=      100000 FMFlg1=           0
         NFxFlg=           0 DoJE=T BraDBF=F KetDBF=T FulRan=T
         wScrn=  0.000000 ICntrl=       500 IOpCl=  0 I1Cent=   200000004 NGrid=           0
         NMat0=    1 NMatS0=      1 NMatT0=    0 NMatD0=    1 NMtDS0=    0 NMtDT0=    0
 Petite list used in FoFCou.
 Requested convergence on RMS density matrix=1.00D-08 within 128 cycles.
 Requested convergence on MAX density matrix=1.00D-06.
 Requested convergence on             energy=1.00D-06.
 No special actions if energy rises.
 SCF Done:  E(RCAM-B3LYP) =  -1182.33878782     A.U. after   17 cycles
            NFock= 17  Conv=0.29D-08     -V/T= 2.0072
 DoSCS=F DFT=T ScalE2(SS,OS)=  1.000000  1.000000
 ExpMin= 4.05D-02 ExpMax= 2.19D+04 ExpMxC= 3.30D+03 IAcc=3 IRadAn=         5 AccDes= 0.00D+00
 HarFok:  IExCor=  205 AccDes= 0.00D+00 IRadAn=         5 IDoV=-2 UseB2=F ITyADJ=14
 ICtDFT= 12500011 ScaDFX=  1.000000  1.000000  1.000000  1.000000
 GSVD:  LWork=        -768 too small for GESVD, short by        3240 words or        3240 for optimal perf.
 Range of M.O.s used for correlation:    25   417
 NBasis=   420 NAE=    75 NBE=    75 NFC=    24 NFV=     0
 NROrb=    393 NOA=    51 NOB=    51 NVA=   342 NVB=   342

 **** Warning!!: The largest alpha MO coefficient is  0.14133411D+03

 Orbital symmetries:
       Occupied  (A) (A) (A) (A) (A) (A) (A) (A) (A) (A) (A) (A)
                 (A) (A) (A) (A) (A) (A) (A) (A) (A) (A) (A) (A)
                 (A) (A) (A) (A) (A) (A) (A) (A) (A) (A) (A) (A)
                 (A) (A) (A) (A) (A) (A) (A) (A) (A) (A) (A) (A)
                 (A) (A) (A) (A) (A) (A) (A) (A) (A) (A) (A) (A)
                 (A) (A) (A) (A) (A) (A) (A) (A) (A) (A) (A) (A)
                 (A) (A) (A)
       Virtual   (A) (A) (A) (A) (A) (A) (A) (A) (A) (A) (A) (A)
                 (A) (A) (A) (A) (A) (A) (A) (A) (A) (A) (A) (A)
                 (A) (A) (A) (A) (A) (A) (A) (A) (A) (A) (A) (A)
                 (A) (A) (A) (A) (A) (A) (A) (A) (A) (A) (A) (A)
                 (A) (A) (A) (A) (A) (A) (A) (A) (A) (A) (A) (A)
                 (A) (A) (A) (A) (A) (A) (A) (A) (A) (A) (A) (A)
                 (A) (A) (A) (A) (A) (A) (A) (A) (A) (A) (A) (A)
                 (A) (A) (A) (A) (A) (A) (A) (A) (A) (A) (A) (A)
                 (A) (A) (A) (A) (A) (A) (A) (A) (A) (A) (A) (A)
                 (A) (A) (A) (A) (A) (A) (A) (A) (A) (A) (A) (A)
                 (A) (A) (A) (A) (A) (A) (A) (A) (A) (A) (A) (A)
                 (A) (A) (A) (A) (A) (A) (A) (A) (A) (A) (A) (A)
                 (A) (A) (A) (A) (A) (A) (A) (A) (A) (A) (A) (A)
                 (A) (A) (A) (A) (A) (A) (A) (A) (A) (A) (A) (A)
                 (A) (A) (A) (A) (A) (A) (A) (A) (A) (A) (A) (A)
                 (A) (A) (A) (A) (A) (A) (A) (A) (A) (A) (A) (A)
                 (A) (A) (A) (A) (A) (A) (A) (A) (A) (A) (A) (A)
                 (A) (A) (A) (A) (A) (A) (A) (A) (A) (A) (A) (A)
                 (A) (A) (A) (A) (A) (A) (A) (A) (A) (A) (A) (A)
                 (A) (A) (A) (A) (A) (A) (A) (A) (A) (A) (A) (A)
                 (A) (A) (A) (A) (A) (A) (A) (A) (A) (A) (A) (A)
                 (A) (A) (A) (A) (A) (A) (A) (A) (A) (A) (A) (A)
                 (A) (A) (A) (A) (A) (A) (A) (A) (A) (A) (A) (A)
                 (A) (A) (A) (A) (A) (A) (A) (A) (A) (A) (A) (A)
                 (A) (A) (A) (A) (A) (A) (A) (A) (A) (A) (A) (A)
                 (A) (A) (A) (A) (A) (A) (A) (A) (A) (A) (A) (A)
                 (A) (A) (A) (A) (A) (A) (A) (A) (A) (A) (A) (A)
                 (A) (A) (A) (A) (A) (A) (A) (A) (A) (A) (A) (A)
                 (A) (A) (A) (A) (A) (A)
    12 initial guesses have been made.
 Convergence on wavefunction:    0.000001000000000
 Iteration     1 Dimension    12 NMult     0 NNew     12
 CISAX will form    12 AO SS matrices at one time.
 New state      3 was old state      6
 Iteration     2 Dimension    24 NMult    12 NNew     12
 Iteration     3 Dimension    27 NMult    24 NNew      3
 Iteration     4 Dimension    30 NMult    27 NNew      3
 Iteration     5 Dimension    33 NMult    30 NNew      3
 Iteration     6 Dimension    36 NMult    33 NNew      3
 Iteration     7 Dimension    39 NMult    36 NNew      3
 Iteration     8 Dimension    42 NMult    39 NNew      3
 Iteration     9 Dimension    45 NMult    42 NNew      3
 Iteration    10 Dimension    48 NMult    45 NNew      3
 Iteration    11 Dimension    51 NMult    48 NNew      3
 ***********************************************************************
 Excited states from <AA,BB:AA,BB> singles matrix:
 ***********************************************************************
 
 Ground to excited state transition densities written to RWF  633
 Ground to excited state transition electric dipole moments (Au):
       state          X           Y           Z        Dip. S.      Osc.
         1         4.3693      0.0001     -0.0003     19.0911      1.3456
         2        -0.0011      0.4062      0.0022      0.1650      0.0127
         3         0.0011     -0.0002     -0.1634      0.0267      0.0023
 Ground to excited state transition velocity dipole moments (Au):
       state          X           Y           Z        Dip. S.      Osc.
         1        -0.0917      0.0000      0.0002      0.0084      0.0531
         2         0.0000      0.0892     -0.0000      0.0080      0.0458
         3        -0.0001     -0.0001     -0.0310      0.0010      0.0049
 Ground to excited state transition magnetic dipole moments (Au):
       state          X           Y           Z
         1        -0.0006      0.0043      1.3258
         2         0.0013     -0.0010     -0.0003
         3         0.3576      0.0000      0.0008
 Ground to excited state transition velocity quadrupole moments (Au):
       state          XX          YY          ZZ          XY          XZ          YZ
         1        -0.0000      0.0000     -0.0000      0.3803     -0.0073      0.0000
         2         0.1201      0.0232     -0.0044     -0.0000      0.0009     -0.0000
         3         0.0005      0.0001      0.0001      0.0001     -0.0000     -0.1012
 <0|del|b> * <b|rxdel|0> + <0|del|b> * <b|delr+rdel|0>
 Rotatory Strengths (R) in cgs (10**-40 erg-esu-cm/Gauss)
       state          XX          YY          ZZ    R(velocity)    E-M Angle
         1         1.2127      0.8467      0.2026      0.7540       89.84
         2        -0.5100      0.0002     -0.0278     -0.1792       90.00
         3        -0.0740     -0.1051     -0.0726     -0.0839       90.00
 1/2[<0|r|b>*<b|rxdel|0> + (<0|rxdel|b>*<b|r|0>)*]
 Rotatory Strengths (R) in cgs (10**-40 erg-esu-cm/Gauss)
       state          XX          YY          ZZ     R(length)
         1         1.9034     -0.0003      0.2390      0.7141
         2         0.0010      0.2837      0.0004      0.0950
         3        -0.2862      0.0000      0.0958     -0.0635
  1/2[<0|del|b>*<b|r|0> + (<0|r|b>*<b|del|0>)*] (Au)
       state          X           Y           Z        Dip. S.   Osc.(frdel)
         1        -0.4008      0.0000     -0.0000      0.4008      0.2672
         2        -0.0000      0.0362     -0.0000     -0.0362     -0.0242
         3        -0.0000      0.0000      0.0051     -0.0051     -0.0034

 Excitation energies and oscillator strengths:
 
 Excited State   1:      Singlet-A      2.8770 eV  430.95 nm  f=1.3456  <S**2>=0.000
      74 -> 77         0.10767
      75 -> 76         0.67865
 This state for optimization and/or second-order correction.
 Total Energy, E(CIS/TDA) =  -1182.23306117    
 Copying the excited state density for this state as the 1-particle RhoCI density.
 
 Excited State   2:      Singlet-A      3.1530 eV  393.23 nm  f=0.0127  <S**2>=0.000
      73 -> 76        -0.16347
      74 -> 76         0.67469
 
 Excited State   3:      Singlet-A      3.5744 eV  346.87 nm  f=0.0023  <S**2>=0.000
      71 -> 76         0.69096
 SavETr:  write IOETrn=   770 NScale= 10 NData=  16 NLR=1 NState=    3 LETran=      64.
          IDoAtm=11111111111111111111111111111111111111
          Differentiating once with respect to electric field.
                with respect to dipole field.
          Differentiating once with respect to nuclear coordinates.
          There are     1 degrees of freedom in the 1st order CPHF.  IDoFFX=0 NUNeed=     1.
 LinEq1:  Iter=  0 NonCon=     1 RMS=5.00D-03 Max=4.62D-01 NDo=     1
 AX will form     1 AO Fock derivatives at one time.
 LinEq1:  Iter=  1 NonCon=     1 RMS=3.32D-03 Max=2.59D-01 NDo=     1
 LinEq1:  Iter=  2 NonCon=     1 RMS=1.45D-03 Max=6.22D-02 NDo=     1
 LinEq1:  Iter=  3 NonCon=     1 RMS=5.95D-04 Max=2.85D-02 NDo=     1
 LinEq1:  Iter=  4 NonCon=     1 RMS=3.48D-04 Max=2.12D-02 NDo=     1
 LinEq1:  Iter=  5 NonCon=     1 RMS=1.45D-04 Max=9.18D-03 NDo=     1
 LinEq1:  Iter=  6 NonCon=     1 RMS=9.45D-05 Max=6.04D-03 NDo=     1
 LinEq1:  Iter=  7 NonCon=     1 RMS=4.40D-05 Max=2.27D-03 NDo=     1
 LinEq1:  Iter=  8 NonCon=     1 RMS=2.15D-05 Max=5.96D-04 NDo=     1
 LinEq1:  Iter=  9 NonCon=     1 RMS=1.04D-05 Max=4.63D-04 NDo=     1
 LinEq1:  Iter= 10 NonCon=     1 RMS=4.92D-06 Max=1.82D-04 NDo=     1
 LinEq1:  Iter= 11 NonCon=     1 RMS=1.76D-06 Max=6.92D-05 NDo=     1
 LinEq1:  Iter= 12 NonCon=     1 RMS=7.48D-07 Max=3.78D-05 NDo=     1
 LinEq1:  Iter= 13 NonCon=     1 RMS=3.66D-07 Max=1.76D-05 NDo=     1
 LinEq1:  Iter= 14 NonCon=     1 RMS=9.07D-08 Max=3.89D-06 NDo=     1
 LinEq1:  Iter= 15 NonCon=     1 RMS=4.78D-08 Max=3.71D-06 NDo=     1
 LinEq1:  Iter= 16 NonCon=     1 RMS=2.80D-08 Max=1.45D-06 NDo=     1
 LinEq1:  Iter= 17 NonCon=     1 RMS=1.51D-08 Max=4.62D-07 NDo=     1
 LinEq1:  Iter= 18 NonCon=     1 RMS=4.80D-09 Max=1.46D-07 NDo=     1
 LinEq1:  Iter= 19 NonCon=     1 RMS=2.26D-09 Max=1.05D-07 NDo=     1
 LinEq1:  Iter= 20 NonCon=     1 RMS=1.10D-09 Max=4.93D-08 NDo=     1
 LinEq1:  Iter= 21 NonCon=     1 RMS=5.01D-10 Max=2.07D-08 NDo=     1
 LinEq1:  Iter= 22 NonCon=     1 RMS=3.33D-10 Max=1.90D-08 NDo=     1
 LinEq1:  Iter= 23 NonCon=     1 RMS=8.94D-11 Max=3.78D-09 NDo=     1
 LinEq1:  Iter= 24 NonCon=     1 RMS=3.56D-11 Max=1.33D-09 NDo=     1
 LinEq1:  Iter= 25 NonCon=     0 RMS=2.07D-11 Max=5.74D-10 NDo=     1
 Linear equations converged to 1.000D-10 1.000D-09 after    25 iterations.
 End of Minotr F.D. properties file   721 does not exist.
 End of Minotr F.D. properties file   722 does not exist.
 End of Minotr F.D. properties file   788 does not exist.

 **********************************************************************

            Population analysis using the SCF Density.

 **********************************************************************

 Orbital symmetries:
       Occupied  (A) (A) (A) (A) (A) (A) (A) (A) (A) (A) (A) (A)
                 (A) (A) (A) (A) (A) (A) (A) (A) (A) (A) (A) (A)
                 (A) (A) (A) (A) (A) (A) (A) (A) (A) (A) (A) (A)
                 (A) (A) (A) (A) (A) (A) (A) (A) (A) (A) (A) (A)
                 (A) (A) (A) (A) (A) (A) (A) (A) (A) (A) (A) (A)
                 (A) (A) (A) (A) (A) (A) (A) (A) (A) (A) (A) (A)
                 (A) (A) (A)
       Virtual   (A) (A) (A) (A) (A) (A) (A) (A) (A) (A) (A) (A)
                 (A) (A) (A) (A) (A) (A) (A) (A) (A) (A) (A) (A)
                 (A) (A) (A) (A) (A) (A) (A) (A) (A) (A) (A) (A)
                 (A) (A) (A) (A) (A) (A) (A) (A) (A) (A) (A) (A)
                 (A) (A) (A) (A) (A) (A) (A) (A) (A) (A) (A) (A)
                 (A) (A) (A) (A) (A) (A) (A) (A) (A) (A) (A) (A)
                 (A) (A) (A) (A) (A) (A) (A) (A) (A) (A) (A) (A)
                 (A) (A) (A) (A) (A) (A) (A) (A) (A) (A) (A) (A)
                 (A) (A) (A) (A) (A) (A) (A) (A) (A) (A) (A) (A)
                 (A) (A) (A) (A) (A) (A) (A) (A) (A) (A) (A) (A)
                 (A) (A) (A) (A) (A) (A) (A) (A) (A) (A) (A) (A)
                 (A) (A) (A) (A) (A) (A) (A) (A) (A) (A) (A) (A)
                 (A) (A) (A) (A) (A) (A) (A) (A) (A) (A) (A) (A)
                 (A) (A) (A) (A) (A) (A) (A) (A) (A) (A) (A) (A)
                 (A) (A) (A) (A) (A) (A) (A) (A) (A) (A) (A) (A)
                 (A) (A) (A) (A) (A) (A) (A) (A) (A) (A) (A) (A)
                 (A) (A) (A) (A) (A) (A) (A) (A) (A) (A) (A) (A)
                 (A) (A) (A) (A) (A) (A) (A) (A) (A) (A) (A) (A)
                 (A) (A) (A) (A) (A) (A) (A) (A) (A) (A) (A) (A)
                 (A) (A) (A) (A) (A) (A) (A) (A) (A) (A) (A) (A)
                 (A) (A) (A) (A) (A) (A) (A) (A) (A) (A) (A) (A)
                 (A) (A) (A) (A) (A) (A) (A) (A) (A) (A) (A) (A)
                 (A) (A) (A) (A) (A) (A) (A) (A) (A) (A) (A) (A)
                 (A) (A) (A) (A) (A) (A) (A) (A) (A) (A) (A) (A)
                 (A) (A) (A) (A) (A) (A) (A) (A) (A) (A) (A) (A)
                 (A) (A) (A) (A) (A) (A) (A) (A) (A) (A) (A) (A)
                 (A) (A) (A) (A) (A) (A) (A) (A) (A) (A) (A) (A)
                 (A) (A) (A) (A) (A) (A) (A) (A) (A) (A) (A) (A)
                 (A) (A) (A) (A) (A) (A)
 The electronic state is 1-A.
 Alpha  occ. eigenvalues --  -89.12602 -14.57800 -14.57798 -14.55973 -10.45699
 Alpha  occ. eigenvalues --  -10.45697 -10.45115 -10.45114 -10.43506 -10.43505
 Alpha  occ. eigenvalues --  -10.40932 -10.40930 -10.40814 -10.40813 -10.40080
 Alpha  occ. eigenvalues --  -10.40079 -10.39667 -10.39667 -10.39400 -10.39400
 Alpha  occ. eigenvalues --   -8.18595  -6.15161  -6.14722  -6.14333  -1.18110
 Alpha  occ. eigenvalues --   -1.17852  -1.17221  -1.07551  -1.07183  -1.02658
 Alpha  occ. eigenvalues --   -0.98174  -0.97180  -0.95275  -0.93067  -0.93026
 Alpha  occ. eigenvalues --   -0.90278  -0.88863  -0.84403  -0.81901  -0.81698
 Alpha  occ. eigenvalues --   -0.79513  -0.75398  -0.74928  -0.71684  -0.70837
 Alpha  occ. eigenvalues --   -0.70693  -0.68084  -0.66688  -0.66605  -0.65207
 Alpha  occ. eigenvalues --   -0.64005  -0.63638  -0.63252  -0.62935  -0.61740
 Alpha  occ. eigenvalues --   -0.61589  -0.59634  -0.59633  -0.59502  -0.59287
 Alpha  occ. eigenvalues --   -0.58026  -0.57870  -0.57528  -0.56782  -0.55785
 Alpha  occ. eigenvalues --   -0.53840  -0.53764  -0.53128  -0.52469  -0.48680
 Alpha  occ. eigenvalues --   -0.45814  -0.45805  -0.43433  -0.39496  -0.36392
 Alpha virt. eigenvalues --   -0.19892  -0.10714  -0.08966  -0.08045  -0.07073
 Alpha virt. eigenvalues --   -0.07066  -0.05384  -0.05233  -0.04751  -0.04230
 Alpha virt. eigenvalues --   -0.03684  -0.03080  -0.02864  -0.02662  -0.02394
 Alpha virt. eigenvalues --   -0.02115  -0.01865  -0.01459  -0.01005  -0.00650
 Alpha virt. eigenvalues --   -0.00627   0.00038   0.00440   0.00938   0.01161
 Alpha virt. eigenvalues --    0.01578   0.01907   0.02224   0.02466   0.02839
 Alpha virt. eigenvalues --    0.03105   0.04191   0.04206   0.04642   0.04718
 Alpha virt. eigenvalues --    0.05267   0.05970   0.06516   0.06612   0.06715
 Alpha virt. eigenvalues --    0.07567   0.07720   0.08678   0.08739   0.09227
 Alpha virt. eigenvalues --    0.09499   0.09625   0.09675   0.10187   0.10249
 Alpha virt. eigenvalues --    0.10308   0.11770   0.11996   0.12016   0.12110
 Alpha virt. eigenvalues --    0.12803   0.12875   0.13217   0.13611   0.13794
 Alpha virt. eigenvalues --    0.14202   0.14477   0.15097   0.15362   0.15707
 Alpha virt. eigenvalues --    0.16051   0.16122   0.16325   0.16947   0.17032
 Alpha virt. eigenvalues --    0.17186   0.17447   0.18051   0.18636   0.18781
 Alpha virt. eigenvalues --    0.18877   0.19256   0.19484   0.19816   0.19879
 Alpha virt. eigenvalues --    0.20112   0.20183   0.20667   0.21577   0.21704
 Alpha virt. eigenvalues --    0.21937   0.22756   0.22878   0.23092   0.23181
 Alpha virt. eigenvalues --    0.23477   0.24683   0.24843   0.25043   0.25148
 Alpha virt. eigenvalues --    0.25300   0.25919   0.26411   0.26463   0.27776
 Alpha virt. eigenvalues --    0.27792   0.28206   0.28695   0.29385   0.30180
 Alpha virt. eigenvalues --    0.30267   0.31213   0.32352   0.32937   0.34291
 Alpha virt. eigenvalues --    0.34473   0.35116   0.36595   0.37579   0.38975
 Alpha virt. eigenvalues --    0.40873   0.41112   0.41282   0.43033   0.44097
 Alpha virt. eigenvalues --    0.45331   0.47093   0.51013   0.51569   0.54242
 Alpha virt. eigenvalues --    0.57684   0.59296   0.59834   0.60148   0.60237
 Alpha virt. eigenvalues --    0.60978   0.61488   0.61496   0.62203   0.62697
 Alpha virt. eigenvalues --    0.63349   0.63589   0.63720   0.64934   0.65194
 Alpha virt. eigenvalues --    0.65858   0.66273   0.66294   0.67018   0.67470
 Alpha virt. eigenvalues --    0.67972   0.69477   0.70500   0.71145   0.72128
 Alpha virt. eigenvalues --    0.72333   0.73005   0.73471   0.74358   0.74566
 Alpha virt. eigenvalues --    0.76279   0.76541   0.76848   0.81225   0.82149
 Alpha virt. eigenvalues --    0.86173   0.86899   0.86972   0.87179   0.87249
 Alpha virt. eigenvalues --    0.88111   0.88720   0.88926   0.89879   0.89928
 Alpha virt. eigenvalues --    0.90840   0.90847   0.91508   0.92034   0.92329
 Alpha virt. eigenvalues --    0.92962   0.94320   0.94501   0.96999   0.97936
 Alpha virt. eigenvalues --    0.98602   0.98819   0.99621   1.00095   1.02177
 Alpha virt. eigenvalues --    1.03691   1.03802   1.05691   1.06081   1.06145
 Alpha virt. eigenvalues --    1.06868   1.08996   1.08999   1.10490   1.10712
 Alpha virt. eigenvalues --    1.12319   1.12611   1.14465   1.15414   1.16350
 Alpha virt. eigenvalues --    1.16949   1.16988   1.17169   1.17642   1.17893
 Alpha virt. eigenvalues --    1.22051   1.22991   1.23306   1.24290   1.25363
 Alpha virt. eigenvalues --    1.28541   1.28629   1.29003   1.29151   1.29438
 Alpha virt. eigenvalues --    1.31745   1.32741   1.33050   1.34751   1.36049
 Alpha virt. eigenvalues --    1.37413   1.39634   1.39968   1.40471   1.41629
 Alpha virt. eigenvalues --    1.43109   1.44349   1.44516   1.45978   1.48804
 Alpha virt. eigenvalues --    1.51698   1.51944   1.52364   1.53611   1.56562
 Alpha virt. eigenvalues --    1.61350   1.62897   1.65737   1.70902   1.74170
 Alpha virt. eigenvalues --    1.74312   1.80445   1.80609   1.81048   1.81456
 Alpha virt. eigenvalues --    1.83705   1.84572   1.86181   1.86915   1.86958
 Alpha virt. eigenvalues --    1.88273   1.88339   1.90202   1.92982   1.94000
 Alpha virt. eigenvalues --    1.94522   1.94695   1.96086   1.96104   1.97520
 Alpha virt. eigenvalues --    2.00244   2.00418   2.02242   2.02819   2.06031
 Alpha virt. eigenvalues --    2.06446   2.07009   2.07031   2.10866   2.11034
 Alpha virt. eigenvalues --    2.11764   2.13025   2.16931   2.16977   2.17289
 Alpha virt. eigenvalues --    2.22100   2.22691   2.22697   2.22883   2.23366
 Alpha virt. eigenvalues --    2.23967   2.26080   2.26359   2.26980   2.29927
 Alpha virt. eigenvalues --    2.31605   2.31951   2.32107   2.34002   2.34381
 Alpha virt. eigenvalues --    2.37093   2.45978   2.47904   2.50000   2.51613
 Alpha virt. eigenvalues --    2.52261   2.52389   2.53601   2.54549   2.56532
 Alpha virt. eigenvalues --    2.58878   2.59236   2.63756   2.68138   2.70081
 Alpha virt. eigenvalues --    2.70905   2.71892   2.73633   2.78729   2.80026
 Alpha virt. eigenvalues --    2.81129   2.82370   2.85398   2.86661   2.92726
 Alpha virt. eigenvalues --    2.98285   3.03206   3.12348   3.17832   3.30071
 Alpha virt. eigenvalues --    3.34120   3.39699   3.94016   4.12747   4.12976
 Alpha virt. eigenvalues --    4.25090   4.27104   4.27477   4.29990   4.30891
 Alpha virt. eigenvalues --    4.31769   4.32987   4.36120   4.37500   4.37583
 Alpha virt. eigenvalues --    4.39887   4.41360   4.44061   4.45683   4.52369
 Alpha virt. eigenvalues --    4.68075   4.77637
          Condensed to atoms (all electrons):
               1          2          3          4          5          6
     1  S   16.199461  -0.006644  -0.006641  -0.078938   0.539014   0.539079
     2  N   -0.006644   6.983758  -0.000000   0.000462  -0.076188   0.006742
     3  N   -0.006641  -0.000000   6.983718   0.000463   0.006747  -0.076148
     4  N   -0.078938   0.000462   0.000463   7.235159   0.186034   0.185761
     5  C    0.539014  -0.076188   0.006747   0.186034  11.073056   0.477809
     6  C    0.539079   0.006742  -0.076148   0.185761   0.477809  11.072565
     7  C   -0.448469  -0.059166  -0.003325  -0.190203  -1.134115  -1.144447
     8  C   -0.448413  -0.003324  -0.059169  -0.190120  -1.144270  -1.133886
     9  C   -0.445167   0.652490   0.000389   0.033128  -3.627396  -0.419724
    10  C   -0.445405   0.000389   0.652471   0.033041  -0.419853  -3.627132
    11  C    0.165059  -0.550181   0.001223   0.025191   1.755871   0.392915
    12  C    0.164999   0.001223  -0.550350   0.025153   0.393049   1.756094
    13  C    0.009140  -0.001405  -0.000962  -0.153318  -0.896833  -0.923354
    14  C    0.009192  -0.000962  -0.001365  -0.153395  -0.923470  -0.897013
    15  C   -0.039760   0.050086  -0.000245   0.117002  -0.980566   0.344786
    16  C   -0.039771  -0.000245   0.050177   0.117203   0.344861  -0.980453
    17  C    0.007053   0.261889   0.000000  -0.000616   0.238019  -0.003518
    18  C   -0.003716   0.269636   0.000001  -0.000657  -0.096219  -0.004109
    19  C   -0.003718   0.000001   0.269653  -0.000657  -0.004111  -0.096203
    20  C    0.007068   0.000000   0.261912  -0.000616  -0.003512   0.238065
    21  H    0.038389  -0.024779  -0.000000  -0.000281  -0.005330   0.012760
    22  H    0.038375  -0.000000  -0.024793  -0.000281   0.012749  -0.005384
    23  H   -0.001422  -0.000182  -0.000000  -0.014457   0.053853   0.010667
    24  H   -0.001424  -0.000000  -0.000182  -0.014466   0.010665   0.053870
    25  H    0.000542  -0.023239  -0.000000   0.000324   0.035882   0.000777
    26  H    0.000542  -0.000000  -0.023230   0.000325   0.000777   0.035884
    27  H    0.001525  -0.033731  -0.000000  -0.000002   0.051672   0.000022
    28  H    0.001591  -0.034245  -0.000000  -0.000002   0.051574   0.000034
    29  H   -0.000398  -0.042352   0.000000   0.000001  -0.011968  -0.000029
    30  H    0.000147  -0.036091   0.000000  -0.000006  -0.003095   0.000041
    31  H    0.000137  -0.035787   0.000000  -0.000006  -0.003070   0.000041
    32  H   -0.000168  -0.040223   0.000000   0.000001  -0.001652  -0.000027
    33  H    0.000142   0.000000  -0.035880  -0.000006   0.000041  -0.003025
    34  H    0.000142   0.000000  -0.035997  -0.000006   0.000042  -0.003136
    35  H   -0.000168   0.000000  -0.040198   0.000001  -0.000027  -0.001651
    36  H    0.001558  -0.000000  -0.033827  -0.000002   0.000022   0.051402
    37  H   -0.000399   0.000000  -0.042311   0.000001  -0.000029  -0.011967
    38  H    0.001565  -0.000000  -0.034147  -0.000002   0.000035   0.051887
               7          8          9         10         11         12
     1  S   -0.448469  -0.448413  -0.445167  -0.445405   0.165059   0.164999
     2  N   -0.059166  -0.003324   0.652490   0.000389  -0.550181   0.001223
     3  N   -0.003325  -0.059169   0.000389   0.652471   0.001223  -0.550350
     4  N   -0.190203  -0.190120   0.033128   0.033041   0.025191   0.025153
     5  C   -1.134115  -1.144270  -3.627396  -0.419853   1.755871   0.393049
     6  C   -1.144447  -1.133886  -0.419724  -3.627132   0.392915   1.756094
     7  C   11.851731   0.959436  -1.402409  -0.187647  -0.327693  -0.113750
     8  C    0.959436  11.851256  -0.187919  -1.402367  -0.113669  -0.327467
     9  C   -1.402409  -0.187919  14.112326  -0.076944  -2.866116  -0.103007
    10  C   -0.187647  -1.402367  -0.076944  14.112646  -0.103061  -2.865564
    11  C   -0.327693  -0.113669  -2.866116  -0.103061  11.389820  -0.195302
    12  C   -0.113750  -0.327467  -0.103007  -2.865564  -0.195302  11.390631
    13  C   -1.809565   0.312533   0.449087  -0.043340  -0.737957  -0.115110
    14  C    0.312725  -1.809353  -0.043481   0.449400  -0.115018  -0.738741
    15  C   -0.508851  -0.089824   0.709475   0.024797  -2.966922   0.024120
    16  C   -0.089920  -0.509376   0.024819   0.708409   0.024076  -2.967871
    17  C    0.044681   0.006895  -0.938092  -0.000281   0.688634  -0.000896
    18  C    0.009827  -0.003991  -0.400089  -0.000176  -0.186411   0.000646
    19  C   -0.003988   0.009805  -0.000175  -0.400154   0.000645  -0.186355
    20  C    0.006890   0.044707  -0.000281  -0.938155  -0.000893   0.688713
    21  H    0.055352  -0.005416  -0.116909   0.001778   0.310019   0.008681
    22  H   -0.005407   0.055357   0.001778  -0.116848   0.008675   0.310029
    23  H    0.025635  -0.023570  -0.010341  -0.000201   0.001314  -0.000390
    24  H   -0.023576   0.025652  -0.000201  -0.010348  -0.000391   0.001308
    25  H    0.046915   0.002134  -0.027728   0.000014   0.054274  -0.000065
    26  H    0.002134   0.046929   0.000014  -0.027736  -0.000065   0.054284
    27  H    0.006862   0.000338  -0.196302   0.000000   0.165956   0.000012
    28  H    0.006663   0.000352  -0.195139   0.000001   0.164927   0.000014
    29  H   -0.001885  -0.000029   0.050777  -0.000000  -0.054032  -0.000002
    30  H    0.002098  -0.000077  -0.112424   0.000000  -0.031317   0.000003
    31  H    0.001931  -0.000079  -0.112726   0.000000  -0.031939   0.000003
    32  H    0.000188   0.000015   0.023118  -0.000000   0.013543  -0.000001
    33  H   -0.000076   0.001952   0.000000  -0.111248   0.000003  -0.031391
    34  H   -0.000080   0.002081   0.000000  -0.113920   0.000003  -0.031893
    35  H    0.000015   0.000187  -0.000000   0.023100  -0.000001   0.013589
    36  H    0.000336   0.006768   0.000001  -0.195017   0.000015   0.164783
    37  H   -0.000029  -0.001883  -0.000000   0.050759  -0.000002  -0.053997
    38  H    0.000353   0.006765   0.000001  -0.196541   0.000011   0.166182
              13         14         15         16         17         18
     1  S    0.009140   0.009192  -0.039760  -0.039771   0.007053  -0.003716
     2  N   -0.001405  -0.000962   0.050086  -0.000245   0.261889   0.269636
     3  N   -0.000962  -0.001365  -0.000245   0.050177   0.000000   0.000001
     4  N   -0.153318  -0.153395   0.117002   0.117203  -0.000616  -0.000657
     5  C   -0.896833  -0.923470  -0.980566   0.344861   0.238019  -0.096219
     6  C   -0.923354  -0.897013   0.344786  -0.980453  -0.003518  -0.004109
     7  C   -1.809565   0.312725  -0.508851  -0.089920   0.044681   0.009827
     8  C    0.312533  -1.809353  -0.089824  -0.509376   0.006895  -0.003991
     9  C    0.449087  -0.043481   0.709475   0.024819  -0.938092  -0.400089
    10  C   -0.043340   0.449400   0.024797   0.708409  -0.000281  -0.000176
    11  C   -0.737957  -0.115018  -2.966922   0.024076   0.688634  -0.186411
    12  C   -0.115110  -0.738741   0.024120  -2.967871  -0.000896   0.000646
    13  C   11.055727   0.492933  -1.080161  -0.105390  -0.039411   0.161310
    14  C    0.492933  11.055897  -0.105417  -1.079974   0.002205  -0.001607
    15  C   -1.080161  -0.105417  10.299447  -0.056676  -0.256183   0.252549
    16  C   -0.105390  -1.079974  -0.056676  10.301879  -0.000135   0.000068
    17  C   -0.039411   0.002205  -0.256183  -0.000135   5.437734  -0.098741
    18  C    0.161310  -0.001607   0.252549   0.000068  -0.098741   5.436258
    19  C   -0.001606   0.161302   0.000068   0.252553  -0.000001   0.000000
    20  C    0.002204  -0.039466  -0.000135  -0.256268   0.000004  -0.000001
    21  H   -0.052498  -0.001259   0.069393  -0.000024   0.002592  -0.001046
    22  H   -0.001257  -0.052496  -0.000025   0.069398   0.000001   0.000001
    23  H    0.294842  -0.010729  -0.023192  -0.001416   0.000303   0.000707
    24  H   -0.010733   0.294869  -0.001415  -0.023219  -0.000000  -0.000000
    25  H    0.007428   0.000326   0.211300   0.000040  -0.001002  -0.007910
    26  H    0.000327   0.007447   0.000040   0.211252  -0.000000   0.000000
    27  H   -0.007454   0.000019  -0.042336  -0.000001   0.392909  -0.001477
    28  H   -0.007193   0.000020  -0.042496  -0.000001   0.393324  -0.001605
    29  H    0.004919  -0.000000   0.015812   0.000000   0.390157  -0.007263
    30  H    0.027059  -0.000010   0.094564  -0.000000   0.001270   0.396292
    31  H    0.027961  -0.000010   0.094745  -0.000000   0.001343   0.396004
    32  H   -0.002726   0.000001  -0.030170   0.000000  -0.010321   0.392829
    33  H   -0.000010   0.027514  -0.000000   0.093185  -0.000000   0.000000
    34  H   -0.000010   0.027467  -0.000000   0.096201  -0.000000   0.000000
    35  H    0.000001  -0.002722   0.000000  -0.030215   0.000000  -0.000000
    36  H    0.000019  -0.007394  -0.000001  -0.042207   0.000000  -0.000000
    37  H   -0.000000   0.004912   0.000000   0.015800  -0.000000  -0.000000
    38  H    0.000020  -0.007260  -0.000001  -0.042656   0.000000  -0.000000
              19         20         21         22         23         24
     1  S   -0.003718   0.007068   0.038389   0.038375  -0.001422  -0.001424
     2  N    0.000001   0.000000  -0.024779  -0.000000  -0.000182  -0.000000
     3  N    0.269653   0.261912  -0.000000  -0.024793  -0.000000  -0.000182
     4  N   -0.000657  -0.000616  -0.000281  -0.000281  -0.014457  -0.014466
     5  C   -0.004111  -0.003512  -0.005330   0.012749   0.053853   0.010665
     6  C   -0.096203   0.238065   0.012760  -0.005384   0.010667   0.053870
     7  C   -0.003988   0.006890   0.055352  -0.005407   0.025635  -0.023576
     8  C    0.009805   0.044707  -0.005416   0.055357  -0.023570   0.025652
     9  C   -0.000175  -0.000281  -0.116909   0.001778  -0.010341  -0.000201
    10  C   -0.400154  -0.938155   0.001778  -0.116848  -0.000201  -0.010348
    11  C    0.000645  -0.000893   0.310019   0.008675   0.001314  -0.000391
    12  C   -0.186355   0.688713   0.008681   0.310029  -0.000390   0.001308
    13  C   -0.001606   0.002204  -0.052498  -0.001257   0.294842  -0.010733
    14  C    0.161302  -0.039466  -0.001259  -0.052496  -0.010729   0.294869
    15  C    0.000068  -0.000135   0.069393  -0.000025  -0.023192  -0.001415
    16  C    0.252553  -0.256268  -0.000024   0.069398  -0.001416  -0.023219
    17  C   -0.000001   0.000004   0.002592   0.000001   0.000303  -0.000000
    18  C    0.000000  -0.000001  -0.001046   0.000001   0.000707  -0.000000
    19  C    5.436200  -0.098683   0.000001  -0.001046  -0.000000   0.000708
    20  C   -0.098683   5.437714   0.000001   0.002599  -0.000000   0.000303
    21  H    0.000001   0.000001   0.502523   0.000000   0.000011   0.000000
    22  H   -0.001046   0.002599   0.000000   0.502526   0.000000   0.000011
    23  H   -0.000000  -0.000000   0.000011   0.000000   0.463950   0.000012
    24  H    0.000708   0.000303   0.000000   0.000011   0.000012   0.463936
    25  H    0.000000  -0.000000  -0.000108  -0.000000  -0.003797  -0.000000
    26  H   -0.007920  -0.001000  -0.000000  -0.000108  -0.000000  -0.003797
    27  H   -0.000000   0.000000  -0.001546   0.000000   0.000000  -0.000000
    28  H   -0.000000   0.000000  -0.001548   0.000000   0.000000  -0.000000
    29  H   -0.000000  -0.000000   0.000323   0.000000  -0.000000  -0.000000
    30  H    0.000000  -0.000000  -0.000004   0.000000  -0.000000   0.000000
    31  H    0.000000  -0.000000  -0.000004   0.000000  -0.000000  -0.000000
    32  H   -0.000000   0.000000  -0.000000  -0.000000  -0.000000  -0.000000
    33  H    0.395784   0.001492   0.000000  -0.000004  -0.000000  -0.000000
    34  H    0.396532   0.001109   0.000000  -0.000004   0.000000  -0.000000
    35  H    0.392811  -0.010303  -0.000000  -0.000000  -0.000000  -0.000000
    36  H   -0.001345   0.392795   0.000000  -0.001540  -0.000000   0.000000
    37  H   -0.007255   0.390128   0.000000   0.000323  -0.000000  -0.000000
    38  H   -0.001745   0.393449   0.000000  -0.001555  -0.000000   0.000000
              25         26         27         28         29         30
     1  S    0.000542   0.000542   0.001525   0.001591  -0.000398   0.000147
     2  N   -0.023239  -0.000000  -0.033731  -0.034245  -0.042352  -0.036091
     3  N   -0.000000  -0.023230  -0.000000  -0.000000   0.000000   0.000000
     4  N    0.000324   0.000325  -0.000002  -0.000002   0.000001  -0.000006
     5  C    0.035882   0.000777   0.051672   0.051574  -0.011968  -0.003095
     6  C    0.000777   0.035884   0.000022   0.000034  -0.000029   0.000041
     7  C    0.046915   0.002134   0.006862   0.006663  -0.001885   0.002098
     8  C    0.002134   0.046929   0.000338   0.000352  -0.000029  -0.000077
     9  C   -0.027728   0.000014  -0.196302  -0.195139   0.050777  -0.112424
    10  C    0.000014  -0.027736   0.000000   0.000001  -0.000000   0.000000
    11  C    0.054274  -0.000065   0.165956   0.164927  -0.054032  -0.031317
    12  C   -0.000065   0.054284   0.000012   0.000014  -0.000002   0.000003
    13  C    0.007428   0.000327  -0.007454  -0.007193   0.004919   0.027059
    14  C    0.000326   0.007447   0.000019   0.000020  -0.000000  -0.000010
    15  C    0.211300   0.000040  -0.042336  -0.042496   0.015812   0.094564
    16  C    0.000040   0.211252  -0.000001  -0.000001   0.000000  -0.000000
    17  C   -0.001002  -0.000000   0.392909   0.393324   0.390157   0.001270
    18  C   -0.007910   0.000000  -0.001477  -0.001605  -0.007263   0.396292
    19  C    0.000000  -0.007920  -0.000000  -0.000000  -0.000000   0.000000
    20  C   -0.000000  -0.001000   0.000000   0.000000  -0.000000  -0.000000
    21  H   -0.000108  -0.000000  -0.001546  -0.001548   0.000323  -0.000004
    22  H   -0.000000  -0.000108   0.000000   0.000000   0.000000   0.000000
    23  H   -0.003797  -0.000000   0.000000   0.000000  -0.000000  -0.000000
    24  H   -0.000000  -0.003797  -0.000000  -0.000000  -0.000000   0.000000
    25  H    0.489191  -0.000000  -0.000003  -0.000003   0.000000  -0.001874
    26  H   -0.000000   0.489217  -0.000000  -0.000000  -0.000000   0.000000
    27  H   -0.000003  -0.000000   0.479716  -0.039923  -0.022351  -0.000221
    28  H   -0.000003  -0.000000  -0.039923   0.480307  -0.022273   0.000200
    29  H    0.000000  -0.000000  -0.022351  -0.022273   0.463433   0.000266
    30  H   -0.001874   0.000000  -0.000221   0.000200   0.000266   0.478262
    31  H   -0.001866   0.000000   0.000204  -0.000221   0.000260  -0.038478
    32  H    0.000354  -0.000000   0.000257   0.000258   0.004712  -0.022413
    33  H    0.000000  -0.001859  -0.000000   0.000000   0.000000   0.000000
    34  H    0.000000  -0.001880   0.000000  -0.000000   0.000000  -0.000000
    35  H   -0.000000   0.000354  -0.000000  -0.000000   0.000000   0.000000
    36  H   -0.000000  -0.000003  -0.000000   0.000000  -0.000000   0.000000
    37  H   -0.000000   0.000000  -0.000000  -0.000000   0.000000   0.000000
    38  H   -0.000000  -0.000003   0.000000  -0.000000  -0.000000  -0.000000
              31         32         33         34         35         36
     1  S    0.000137  -0.000168   0.000142   0.000142  -0.000168   0.001558
     2  N   -0.035787  -0.040223   0.000000   0.000000   0.000000  -0.000000
     3  N    0.000000   0.000000  -0.035880  -0.035997  -0.040198  -0.033827
     4  N   -0.000006   0.000001  -0.000006  -0.000006   0.000001  -0.000002
     5  C   -0.003070  -0.001652   0.000041   0.000042  -0.000027   0.000022
     6  C    0.000041  -0.000027  -0.003025  -0.003136  -0.001651   0.051402
     7  C    0.001931   0.000188  -0.000076  -0.000080   0.000015   0.000336
     8  C   -0.000079   0.000015   0.001952   0.002081   0.000187   0.006768
     9  C   -0.112726   0.023118   0.000000   0.000000  -0.000000   0.000001
    10  C    0.000000  -0.000000  -0.111248  -0.113920   0.023100  -0.195017
    11  C   -0.031939   0.013543   0.000003   0.000003  -0.000001   0.000015
    12  C    0.000003  -0.000001  -0.031391  -0.031893   0.013589   0.164783
    13  C    0.027961  -0.002726  -0.000010  -0.000010   0.000001   0.000019
    14  C   -0.000010   0.000001   0.027514   0.027467  -0.002722  -0.007394
    15  C    0.094745  -0.030170  -0.000000  -0.000000   0.000000  -0.000001
    16  C   -0.000000   0.000000   0.093185   0.096201  -0.030215  -0.042207
    17  C    0.001343  -0.010321  -0.000000  -0.000000   0.000000   0.000000
    18  C    0.396004   0.392829   0.000000   0.000000  -0.000000  -0.000000
    19  C    0.000000  -0.000000   0.395784   0.396532   0.392811  -0.001345
    20  C   -0.000000   0.000000   0.001492   0.001109  -0.010303   0.392795
    21  H   -0.000004  -0.000000   0.000000   0.000000  -0.000000   0.000000
    22  H    0.000000  -0.000000  -0.000004  -0.000004  -0.000000  -0.001540
    23  H   -0.000000  -0.000000  -0.000000   0.000000  -0.000000  -0.000000
    24  H   -0.000000  -0.000000  -0.000000  -0.000000  -0.000000   0.000000
    25  H   -0.001866   0.000354   0.000000   0.000000  -0.000000  -0.000000
    26  H    0.000000  -0.000000  -0.001859  -0.001880   0.000354  -0.000003
    27  H    0.000204   0.000257  -0.000000   0.000000  -0.000000  -0.000000
    28  H   -0.000221   0.000258   0.000000  -0.000000  -0.000000   0.000000
    29  H    0.000260   0.004712   0.000000   0.000000   0.000000  -0.000000
    30  H   -0.038478  -0.022413   0.000000  -0.000000   0.000000   0.000000
    31  H    0.477913  -0.022429  -0.000000   0.000000   0.000000  -0.000000
    32  H   -0.022429   0.464482   0.000000   0.000000   0.000000  -0.000000
    33  H   -0.000000   0.000000   0.478198  -0.038468  -0.022337   0.000193
    34  H    0.000000   0.000000  -0.038468   0.477943  -0.022508  -0.000222
    35  H    0.000000   0.000000  -0.022337  -0.022508   0.464466   0.000264
    36  H   -0.000000  -0.000000   0.000193  -0.000222   0.000264   0.480010
    37  H    0.000000   0.000000   0.000265   0.000260   0.004702  -0.022254
    38  H    0.000000  -0.000000  -0.000221   0.000212   0.000251  -0.039929
              37         38
     1  S   -0.000399   0.001565
     2  N    0.000000  -0.000000
     3  N   -0.042311  -0.034147
     4  N    0.000001  -0.000002
     5  C   -0.000029   0.000035
[...]
 00406063,-0.00418896,-0.00197078,0.00069021,0.00191574,-0.00003221,0.0
 0005293,0.00000654,0.00002482,-0.00003630,0.00019797,0.00001259,-0.000
 02333,0.00000571,-0.00000288,0.00004445,-0.00001605,-0.00000908,0.0000
 6050,-0.00000877,-0.00155468,0.00083096,0.00117121,0.00002847,0.000000
 88,-0.00000639,0.00003087,-0.00000028,0.00000483,-0.00001881,-0.000000
 34,-0.00000014,-0.00010315,-0.00004216,0.00001292,-0.00010944,-0.00004
 316,-0.00001050,-0.00002448,0.00002511,-0.00000036,0.00056628,0.000886
 59,0.00140090,0.05632831,0.00006294,-0.00011475,0.00000613,-0.00007970
 ,-0.00014296,0.00000994,-0.00998116,-0.01608394,0.01367096,0.00207651,
 0.00023965,0.00003019,0.00055303,0.00116671,-0.00004803,0.00076388,-0.
 00127280,0.00005357,-0.00128944,-0.00115760,0.00004245,-0.00157627,0.0
 0122970,-0.00008440,-0.00015232,0.00075787,-0.00004610,0.00399728,-0.0
 0254963,0.00026079,-0.00006482,-0.00038168,0.00000710,-0.00110797,-0.0
 0018510,-0.00028506,0.00027040,-0.00018518,-0.00000086,0.00078509,0.00
 011394,0.00002699,-0.00036064,-0.00025956,0.00001638,-0.00072153,0.001
 42978,-0.00037030,-0.00006021,-0.00000820,-0.00000371,0.00000989,-0.00
 010201,0.00000738,0.00253807,-0.12058478,0.11756173,-0.00196929,-0.000
 08969,0.00137170,0.00000971,-0.00002269,0.00001394,0.00008348,0.000047
 96,0.00008582,-0.00000629,0.00001096,-0.00000201,-0.00000640,0.0000051
 3,-0.00001290,-0.00000044,-0.00002282,0.00000370,0.00103323,0.00005448
 ,-0.00053153,0.00000546,-0.00000407,0.00000701,0.00000363,-0.00000634,
 -0.00000568,0.00000210,0.00000182,0.00000008,0.00003971,0.00002507,-0.
 00000826,0.00003946,0.00002617,0.00000613,0.00000661,-0.00001198,0.000
 00093,0.00066427,0.01217898,-0.01741815,0.00563948,0.13575705,-0.00009
 312,-0.00001007,0.00000407,0.00003458,0.00004758,-0.00000092,0.0058542
 7,-0.00027198,0.00820750,-0.00086428,-0.00020153,-0.00007768,-0.000224
 15,-0.00039199,0.00008352,-0.00020056,0.00037089,-0.00007025,0.0005238
 9,0.00039136,0.00000536,0.00068842,-0.00018454,0.00000577,0.00002784,-
 0.00021030,0.00000424,-0.00204492,0.00175133,0.00053026,0.00005695,0.0
 0013742,-0.00002002,0.00056839,-0.00002728,-0.00027788,-0.00014032,0.0
 0005537,-0.00000214,-0.00084107,-0.00043645,0.00014445,0.00013383,0.00
 007629,-0.00000743,0.00072257,0.00039266,0.00002924,0.00002651,-0.0000
 0003,0.00000107,0.00000140,0.00003727,0.00000190,-0.00162501,0.1186267
 1,-0.24408586,-0.00017451,-0.00103193,-0.00148231,-0.00000093,0.000006
 92,-0.00000733,-0.00006613,-0.00005790,0.00004668,0.00000590,-0.000003
 22,0.00000164,0.00002060,-0.00000937,-0.00001037,-0.00000142,0.0000070
 7,-0.00000348,-0.00004894,-0.00070811,-0.00017104,-0.00000574,0.000001
 09,-0.00000542,-0.00000323,0.00000141,0.00000337,-0.00000220,-0.000001
 30,-0.00000019,-0.00001223,-0.00000837,0.00000412,-0.00001458,-0.00000
 941,-0.00000434,-0.00000367,0.00000296,-0.00000014,-0.00158515,0.01407
 650,-0.02158536,0.00006062,-0.13108926,0.25738316,-0.00005730,0.000103
 16,-0.00000468,-0.00015204,0.00000289,0.00000012,-0.02893055,0.0145473
 8,-0.00063032,-0.00066789,0.00002495,0.00000155,-0.00022894,-0.0006043
 1,0.00002856,-0.00039799,0.00024036,-0.00000890,0.00038595,0.00050764,
 -0.00002519,0.00038848,-0.00059540,0.00002610,0.00031695,-0.00043486,0
 .00001950,-0.00131500,-0.00413183,0.00018691,-0.00014651,0.00025376,-0
 .00001115,-0.00104886,0.00067200,-0.00002453,-0.00001461,0.00006557,-0
 .00000289,0.00012420,0.00010827,-0.00000614,0.00011989,0.00010773,-0.0
 0000555,0.00026362,-0.00077397,0.00003658,0.00002676,0.00006014,-0.000
 00273,0.00002541,0.00002621,-0.00000134,-0.23434348,0.13070475,-0.0060
 3772,-0.00025460,0.00325141,-0.00014488,-0.00000595,0.00001247,-0.0000
 0068,-0.00002535,-0.00006662,0.00000263,0.00000291,-0.00000460,0.00000
 022,-0.00003391,0.00001754,-0.00000062,-0.00000383,0.00001254,-0.00000
 057,0.00016049,0.00012476,-0.00000700,0.00000927,-0.00000172,-0.000001
 72,0.00000929,-0.00000149,0.00000176,-0.00000628,0.00000014,0.,-0.0000
 2384,-0.00000685,0.00000375,-0.00002388,-0.00000717,-0.00000291,-0.000
 00720,0.00000467,-0.00000019,0.00261082,-0.00042315,0.00087740,0.00249
 168,-0.00042502,-0.00083588,0.25859238,-0.00002539,0.00006422,-0.00000
 388,-0.00003808,0.00005914,-0.00000305,-0.02327571,0.01037833,-0.00056
 626,-0.00084401,0.00001100,0.00000194,-0.00035924,-0.00070007,0.000032
 73,-0.00035595,0.00043419,-0.00002153,0.00051913,0.00063159,-0.0000312
 8,0.00056356,-0.00077245,0.00003256,0.00020114,-0.00050798,0.00002437,
 -0.00215614,-0.00302600,0.00016398,-0.00002242,0.00026475,-0.00001176,
 -0.00131701,0.00049794,0.00000858,-0.00004368,0.00010464,-0.00000514,0
 .00008952,0.00035058,-0.00000910,0.00017056,0.00014636,-0.00000762,0.0
 0020949,-0.00134463,0.00007856,0.00002564,0.00003257,-0.00000121,-0.00
 000087,0.00004700,-0.00000240,0.14628213,-0.15315473,0.00473178,-0.003
 38801,-0.00020425,0.00003544,-0.00000691,0.00001426,-0.00000118,0.0000
 1582,0.00004683,-0.00000158,-0.00000027,-0.00000518,0.00000032,-0.0000
 1976,0.00001676,-0.00000021,-0.00000066,0.00001600,-0.00000063,0.00051
 831,0.00058826,-0.00004918,0.00000555,0.00000183,-0.00000108,0.0000056
 4,0.00000198,0.00000076,-0.00000282,-0.00000002,0.00000001,-0.00002530
 ,-0.00001256,0.00000314,-0.00002525,-0.00001284,-0.00000177,-0.0000049
 3,0.00000761,-0.00000033,0.01475736,-0.00998093,0.00245633,0.01249914,
 -0.00861422,-0.00140008,-0.14181895,0.16635819,0.00000141,-0.00000370,
 -0.00001829,0.00000162,-0.00000240,-0.00000434,0.00122598,-0.00066757,
 -0.00221481,0.00002801,-0.00000221,-0.00001763,0.00001372,0.00002539,-
 0.00002031,0.00001412,-0.00001464,-0.00006044,-0.00001720,-0.00002251,
 0.00000560,-0.00001826,0.00002807,-0.00003218,-0.00000766,0.00002023,0
 .00002162,0.00011423,0.00018152,0.00032707,0.00000106,-0.00000981,0.00
 000733,0.00007004,-0.00000672,0.00047476,0.00000063,-0.00000428,-0.000
 00738,-0.00000660,-0.00000920,0.00016696,-0.00000597,-0.00000545,-0.00
 000224,-0.00000048,0.00007349,0.00032043,-0.00000085,-0.00000103,0.000
 00513,0.00000007,-0.00000187,-0.00000400,-0.00680537,0.00477436,-0.050
 69534,0.00015880,0.00002126,0.00044688,0.00000022,-0.00000093,-0.00000
 818,-0.00000090,-0.00000123,0.00002386,0.00000007,0.00000024,0.0000013
 2,0.00000117,-0.00000046,0.00000797,0.00000002,-0.00000053,0.00000186,
 -0.00002487,-0.00004519,-0.00039402,-0.00000095,-0.00000032,-0.0000005
 7,0.00000046,0.00000011,-0.00000062,0.00000010,0.,0.00000015,0.0000002
 5,0.00000086,-0.00000011,0.00000163,0.00000008,0.00000007,0.00000018,-
 0.00000030,0.00000008,0.02216766,-0.01522073,0.00264674,-0.02351325,0.
 01635326,0.00138153,0.00650399,-0.00557699,0.04681695,0.00008341,-0.00
 007477,-0.00003458,0.00040553,0.00007675,-0.00000472,0.00348079,0.0003
 0407,-0.00581734,0.00043531,-0.00015678,-0.00000607,0.00007560,0.00075
 045,0.00014866,-0.00041741,-0.00014312,0.00002126,-0.00004402,-0.00051
 933,0.00003453,0.00003262,0.00048596,0.00003247,-0.00066579,0.00061523
 ,-0.00002101,-0.00096951,-0.00017504,-0.00071484,0.00041110,-0.0003248
 7,-0.00000648,0.00118890,0.00000455,-0.00021843,-0.00016479,-0.0001186
 7,-0.00010348,-0.00018973,0.00009975,0.00007842,-0.00006593,-0.0001112
 8,0.00001505,-0.00032144,0.00003520,0.00055842,-0.00000747,-0.00013527
 ,0.00001465,-0.00005371,0.00001787,-0.00000481,-0.00040687,-0.00035801
 ,-0.00014549,-0.09717119,-0.03628748,0.09344740,0.00000949,-0.00001694
 ,-0.00002612,-0.00164856,0.00096875,-0.00130334,-0.00000298,0.00000391
 ,0.00000040,0.00000793,-0.00003799,-0.00005311,0.00000430,-0.00002030,
 0.00001425,-0.00000309,0.00005460,-0.00005522,-0.00003138,0.00000597,-
 0.00000791,-0.00002470,0.00000722,0.00000350,0.00000984,-0.00000179,-0
 .00000018,0.00002852,-0.00000482,0.00000543,0.00003080,-0.00000321,-0.
 00000291,0.00000934,-0.00000542,0.00000093,0.00004066,-0.00019018,0.00
 004477,0.00017484,-0.00033245,0.00005306,0.00042107,-0.00014223,0.0002
 0363,0.09961870,-0.00010142,0.00004719,0.00000968,0.00011925,0.0000505
 3,-0.00000616,-0.01162213,-0.02829485,0.02648542,-0.00033718,-0.000129
 26,-0.00000570,-0.00000451,-0.00013580,-0.00005308,0.00024730,-0.00008
 085,-0.00012459,0.00022911,0.00008510,0.00003842,0.00051691,0.00015052
 ,-0.00000567,-0.00012687,-0.00002076,0.00000113,-0.00590614,0.00240805
 ,0.00082524,0.00005915,0.00000249,0.00002290,0.00076097,0.00108604,-0.
 00033101,-0.00008440,0.00004089,-0.00000722,-0.00069652,0.00019374,-0.
 00010624,0.00005070,0.00003118,0.00000707,0.00074847,-0.00152671,-0.00
 097546,0.00000518,-0.00003238,0.00000582,-0.00001891,0.00001981,-0.000
 00577,0.00222633,-0.00175372,0.00248420,-0.03510414,-0.07748308,0.0732
 5065,0.00000484,0.00000270,-0.00000295,0.00077627,0.00011646,0.0006225
 4,-0.00000004,-0.00000168,0.00000618,0.00000215,-0.00001202,0.00011619
 ,0.00000377,0.00000098,-0.00000091,-0.00005028,0.00008696,0.00015403,-
 0.00000649,0.00000166,-0.00000153,-0.00000734,0.00000327,0.00000132,0.
 00000321,-0.00000051,0.00000036,-0.00000055,-0.00000421,0.00000120,0.0
 0000132,-0.00000590,-0.00000059,0.00000177,0.00000181,-0.00000033,-0.0
 0009250,-0.00022573,0.00013862,-0.00108689,-0.00107696,0.00019413,-0.0
 0011644,-0.00006775,-0.00015531,0.04167900,0.09659428,-0.00000696,0.00
 000162,-0.00003859,-0.00006372,-0.00004708,0.00000523,-0.00422965,0.00
 508517,0.00751059,0.00045255,0.00002158,-0.00000759,0.00003605,0.00019
 519,-0.00010691,0.00010482,-0.00089533,0.00021122,-0.00034040,-0.00017
 343,-0.00004981,-0.00030658,0.00025122,0.00000693,0.00004227,0.0000746
 1,-0.00000587,0.00271839,-0.00072149,0.00062676,-0.00003973,-0.0000733
 5,0.00000902,-0.00005971,0.00069314,-0.00007948,0.00010728,-0.00003210
 ,0.00009547,0.00028449,-0.00011885,-0.00008869,-0.00007662,-0.00004053
 ,-0.00000849,-0.00040097,0.00055122,-0.00023257,-0.00001846,0.00002469
 ,-0.00000882,0.00000116,-0.00002413,0.00000356,-0.00063079,-0.00083666
 ,-0.00161684,0.09261309,0.07575339,-0.23771848,-0.00001011,-0.00000250
 ,0.00001926,-0.00058852,-0.00042180,-0.00026136,0.00000128,0.00000177,
 -0.00000395,-0.00000928,0.00001271,0.00001464,0.00000083,-0.00000366,-
 0.00000910,0.00000656,-0.00007877,0.00003562,0.00000818,-0.00000140,0.
 00000893,0.00000419,-0.00000210,-0.00000596,0.00000090,0.00000044,0.00
 000010,0.00000584,0.00000706,-0.00000540,0.00000466,0.00000661,0.00000
 284,0.00000163,-0.00000096,-0.00000055,-0.00005060,-0.00011248,0.00004
 151,0.00016183,0.00018325,-0.00004954,-0.00001950,0.00001767,-0.000011
 29,-0.10100038,-0.08560505,0.25122719,0.00000002,0.00008676,-0.0000040
 9,-0.00017292,-0.00002135,0.00000139,-0.00338500,0.00033384,-0.0000091
 3,-0.00054490,0.00005056,-0.00000029,-0.00006957,-0.00046568,0.0000217
 3,0.00001775,0.00052825,-0.00002419,0.00029248,0.00039029,-0.00001942,
 0.00025456,-0.00035310,0.00001547,0.00031348,-0.00033953,0.00001489,0.
 00097263,0.00020208,-0.00001533,-0.00019334,0.00019300,-0.00000829,-0.
 00030580,-0.00044631,0.00002298,-0.00000929,0.00005355,-0.00000224,-0.
 00002455,0.00004249,-0.00000198,0.00008525,0.00008281,-0.00000426,0.00
 021526,-0.00037374,0.00001804,0.00002043,0.00006087,-0.00000281,0.0000
 3091,0.00001038,-0.00000056,-0.00018375,-0.00330889,0.00015423,-0.3290
 0385,0.05914465,-0.00207644,-0.00000328,0.00000887,-0.00000042,0.00008
 434,0.00039159,-0.00001977,0.00000325,-0.00000409,0.00000019,-0.000017
 06,0.00000488,-0.00000036,-0.00000357,0.00000966,-0.00000046,0.0000293
 1,0.00006921,-0.00000341,0.00000987,-0.00000310,-0.00000099,0.00000987
 ,-0.00000295,0.00000119,-0.00000636,0.00000044,0.,-0.00001869,-0.00000
 249,0.00000233,-0.00001873,-0.00000269,-0.00000195,-0.00000632,0.00000
 270,-0.00000010,0.00027922,-0.00026566,-0.00001043,0.00027313,-0.00025
 729,0.00003565,0.00132044,-0.00183543,0.00008447,-0.01034123,0.0015644
 8,-0.00082487,0.35056415,0.00004223,0.00004623,-0.00000304,-0.00002825
 ,-0.00000695,0.00000035,0.03824586,-0.01477715,0.00047180,-0.00008352,
 0.00007918,-0.00000371,0.00010516,-0.00006915,0.00000202,0.00016877,0.
 00046019,-0.00001202,0.00003668,0.00003216,-0.00000265,-0.00010045,-0.
 00012270,0.00000577,0.00004203,-0.00003116,0.00000155,-0.00248987,-0.0
 0603856,0.00030951,-0.00006826,0.00001279,-0.00000016,-0.00097230,-0.0
 0063783,0.00004982,-0.00001103,0.00002463,0.00000020,-0.00017175,-0.00
 049762,0.00002064,0.00000645,0.00001246,-0.00000094,0.00194094,-0.0002
 3540,0.00002749,-0.00000186,0.00000648,-0.00000038,0.00000414,-0.00000
 744,0.00000038,0.00337801,-0.00027766,0.00002276,0.04367115,-0.0589741
 7,0.00029878,0.00000387,0.00000138,0.00000015,0.00007023,0.00064216,-0
 .00005248,-0.00000130,-0.00000035,0.00000001,0.00012766,-0.00002590,-0
 .00000231,0.00000082,0.00000174,-0.00000015,-0.00002165,-0.00000373,0.
 00000173,0.00000197,-0.00000053,0.00000043,0.00000194,-0.00000059,-0.0
 0000036,-0.00000056,0.00000062,0.,-0.00000002,0.00000179,-0.00000125,-
 0.00000003,0.00000188,0.00000105,-0.00000025,0.00000002,0.,-0.00021856
 ,0.00005611,0.00001109,-0.00024441,0.00005719,-0.00001593,-0.00132204,
 -0.00161293,0.00011576,-0.01121669,0.00327959,-0.00194339,-0.05721323,
 0.07459868,-0.00000204,-0.00000312,-0.00001447,0.00000210,0.00000046,-
 0.00000145,-0.00174314,0.00056944,-0.00233614,0.00000403,-0.00000465,-
 0.00000656,-0.00000505,0.00000355,-0.00001660,-0.00000785,-0.00001349,
 0.00021353,-0.00000162,-0.00000299,-0.00002147,0.00000581,0.00000632,-
 0.00000611,-0.00000317,0.00000259,0.00000445,0.00011293,0.00029521,0.0
 0037974,0.00000411,-0.00000094,0.00000396,0.00005212,0.00004655,0.0003
 3084,0.00000023,-0.00000004,0.00002630,0.00000635,0.00001921,-0.000070
 50,-0.00000034,-0.00000097,-0.00000585,-0.00008685,0.00003673,0.000554
 77,0.00000007,-0.00000062,-0.00000133,-0.00000029,0.00000044,0.0000011
 0,-0.00015493,0.00003937,0.00036303,-0.00137131,0.00025994,-0.05033622
 ,-0.00000015,0.00000013,0.00000460,-0.00000589,-0.00005467,-0.00047654
 ,0.00000005,0.00000001,-0.00000019,-0.00000605,-0.00000214,-0.00006966
 ,-0.00000003,-0.00000016,-0.00000102,0.00000101,0.00000138,0.00002779,
 0.00000007,0.00000039,0.00000008,-0.00000035,-0.00000030,0.00000017,0.
 00000005,-0.00000002,0.00000036,0.00000023,0.00000006,-0.00000019,-0.0
 0000013,-0.00000027,-0.00000028,0.00000003,0.,0.00000015,0.00025750,-0
 .00005314,-0.00001471,-0.00023781,0.00004950,-0.00001667,0.00005969,0.
 00011983,0.00085801,0.02763430,-0.00608433,0.00231021,0.00192401,-0.00
 115305,0.04661163,0.00008344,-0.00007185,0.00004020,0.00040633,0.00007
 705,-0.00000457,0.00353317,0.00082605,0.00579196,0.00043447,-0.0001571
 4,0.00001678,0.00007452,0.00073374,-0.00021612,-0.00041934,-0.00014283
 ,-0.00000599,-0.00004302,-0.00052013,0.00001420,0.00003446,0.00048115,
 -0.00007694,-0.00066700,0.00061550,-0.00003261,-0.00097360,-0.00010128
 ,0.00074698,0.00041196,-0.00032303,0.00003377,0.00120932,0.00001672,0.
 00019840,-0.00016485,-0.00010866,0.00011436,-0.00019095,0.00009347,-0.
 00008578,-0.00006576,-0.00011223,-0.00000401,-0.00032483,-0.00001879,-
 0.00055824,-0.00000739,-0.00013636,-0.00000200,-0.00005370,0.00001839,
 0.00000341,-0.00039539,-0.00033678,0.00017081,-0.09803505,-0.04506782,
 -0.09031209,0.00000979,-0.00001444,0.00002748,-0.00161482,0.00107169,0
 .00121404,-0.00000302,0.00000385,-0.00000081,0.00000840,-0.00003298,0.
 00005650,0.00000421,-0.00002155,-0.00001220,-0.00000268,0.00006035,0.0
 0005041,-0.00002484,0.00000696,-0.00000409,-0.00003139,0.00000663,0.00
 000755,0.00000984,-0.00000178,0.00000025,0.00003080,-0.00000298,0.0000
 0298,0.00002854,-0.00000534,-0.00000522,0.00000934,-0.00000549,-0.0000
 0049,0.00017527,-0.00033841,-0.00002069,0.00003882,-0.00019298,-0.0000
 2645,0.00041837,-0.00015396,-0.00019116,0.00606104,0.00636257,0.012120
 86,-0.01046815,-0.01368189,-0.02643769,0.10050373,-0.00010074,0.000045
 73,-0.00001683,0.00012672,0.00005510,0.00000074,-0.01124016,-0.0308971
 1,-0.02291450,-0.00037016,-0.00012986,0.00001983,-0.00000426,-0.000142
 21,0.00005712,0.00023917,0.00000652,0.00014087,0.00025510,0.00009038,-
 0.00005325,0.00054038,0.00013281,-0.00001009,-0.00013428,-0.00002254,0
 .00000159,-0.00616312,0.00238709,-0.00095558,0.00006383,0.00000408,-0.
 00002319,0.00077005,0.00104785,0.00021940,-0.00009392,0.00004424,0.000
 01225,-0.00072147,0.00021346,0.00008323,0.00005612,0.00003285,-0.00001
 127,0.00078968,-0.00147871,0.00109104,0.00000650,-0.00003578,-0.000003
 34,-0.00001926,0.00002213,0.00000418,0.00224746,-0.00188791,-0.0024784
 2,-0.04382229,-0.09232426,-0.08633634,0.00000586,0.00000321,0.00000433
 ,0.00081698,0.00009147,-0.00065844,-0.00000025,-0.00000238,-0.00000632
 ,0.00000209,-0.00002388,-0.00011297,0.00000374,0.00000116,-0.00000004,
 -0.00005184,0.00007877,-0.00015784,-0.00000785,0.00000331,-0.00000213,
 -0.00000730,0.00000201,0.00000218,0.00000320,-0.00000058,-0.00000033,0
 .00000118,-0.00000631,0.00000138,-0.00000081,-0.00000490,-0.00000121,0
 .00000170,0.00000186,0.00000009,-0.00109820,-0.00110524,-0.00008213,-0
 .00008606,-0.00022547,-0.00010792,-0.00011391,-0.00005750,0.00015873,0
 .00526738,0.00664890,0.00825369,0.00166416,0.00400458,0.00592380,0.051
 17458,0.11342712,0.00001519,-0.00000892,-0.00003772,0.00005068,0.00004
 275,0.00000027,0.00531514,-0.00158373,0.01003606,-0.00043166,-0.000012
 21,-0.00000414,-0.00004015,-0.00020113,-0.00009165,-0.00012434,0.00091
 525,0.00011581,0.00032374,0.00016908,-0.00006404,0.00026625,-0.0002676
 5,0.00002971,-0.00002622,-0.00007955,0.00000161,-0.00216407,0.00057425
 ,0.00065941,0.00003294,0.00007736,0.00000368,-0.00001051,-0.00079269,-
 0.00003467,-0.00009881,0.00003814,0.00009125,-0.00022429,0.00008997,-0
 .00010529,0.00007371,0.00003839,-0.00001192,0.00033490,-0.00044424,-0.
 00028111,0.00001827,-0.00002146,-0.00000619,0.00000090,0.00002284,0.00
 000090,0.00041511,0.00084707,-0.00147299,-0.08958994,-0.08880125,-0.22
 192267,0.00000963,0.00000418,0.00001829,0.00051881,0.00037995,-0.00025
 727,-0.00000127,-0.00000199,-0.00000319,0.00000919,-0.00000902,0.00002
 592,-0.00000127,0.00000291,-0.00000934,-0.00000161,0.00007451,0.000042
 86,-0.00000345,0.00000121,-0.00000596,-0.00000734,0.00000203,0.0000086
 0,-0.00000127,-0.00000039,0.00000015,-0.00000511,-0.00000588,0.0000033
 9,-0.00000618,-0.00000720,-0.00000460,-0.00000189,0.00000082,-0.000000
 64,-0.00006352,-0.00008397,-0.00002267,0.00005538,0.00013731,0.0000404
 8,0.00002631,-0.00001177,-0.00002258,-0.01278472,-0.01089319,-0.021819
 76,0.00073522,0.00185052,0.00170521,0.09738621,0.09795769,0.23339481\\
 0.00000013,0.00001124,0.00000241,0.00002968,0.00000220,-0.00000618,-0.
 00002978,0.00000343,0.00002233,0.00000032,0.00001663,0.00000158,-0.000
 01826,0.00000021,-0.00000490,0.00001778,0.00000043,0.00000664,-0.00002
 125,-0.00003470,0.00000323,0.00002206,-0.00003453,-0.00000282,-0.00000
 999,0.00000106,-0.00000022,0.00001116,0.00000112,-0.00000643,-0.000004
 56,0.00001047,0.00000033,0.00000329,0.00001075,0.00000419,0.00002276,0
 .00001576,-0.00000083,-0.00002323,0.00001515,-0.00000030,-0.00002302,-
 0.00000924,0.00000226,0.00002287,-0.00000950,-0.00000027,0.00000804,0.
 00000355,0.00000148,0.00000228,0.00000511,0.00000343,-0.00000278,0.000
 00457,-0.00000873,-0.00000796,0.00000283,-0.00001133,-0.00000557,-0.00
 000995,0.00000017,0.00000546,-0.00000966,-0.00000148,-0.00000621,-0.00
 000032,-0.00000053,0.00000627,-0.00000022,-0.00000033,0.00000197,0.000
 00604,-0.00000054,-0.00000156,0.00000602,-0.00000168,0.00000029,-0.000
 00281,-0.00000014,0.00000130,-0.00000190,0.00000256,0.00000558,-0.0000
 0966,-0.00000123,-0.00000199,0.00000047,0.00000163,-0.00000193,0.00000
 056,-0.00000115,-0.00000377,0.00000922,-0.00000130,0.00000013,0.000000
 35,-0.00000517,0.00000363,0.00000057,-0.00000241,0.00000365,0.00000974
 ,0.00000547,-0.00000129,-0.00000174,-0.00000390,-0.00000546,-0.0000095
 9,0.00000515,-0.00000003,-0.00000365,-0.00000099\\\@
 The archive entry for this job was punched.


 ON A CLEAR DISK YOU CAN SEEK FOREVER.
 Job cpu time:       0 days 18 hours 23 minutes 50.8 seconds.
 Elapsed time:       0 days  1 hours  9 minutes  3.9 seconds.
 File lengths (MBytes):  RWF=   1850 Int=      0 D2E=      0 Chk=     36 Scr=      1
 Normal termination of Gaussian DV at Thu Feb 21 20:39:39 2019.
