************************************************************
This is node21.cluster of cluster Pinconning.
Date: Thu Feb 21 18:15:27 PST 2019
************************************************************
 Set GAUSS_MDEF to "32GB".
 Set GAUSS_PDEF to "16".
 Entering Gaussian System, Link 0=gdv
 Initial command:
 /opt/gaussian/gdv-20170407-i10+/gdv/local/l1.exe "/tmp/652477.1.16core.q/Gau-4984.inp" -scrdir="/tmp/652477.1.16core.q/"
 Default is to use a total of  16 processors:
                               16 via shared-memory
                                1 via Linda
 Entering Link 1 = /opt/gaussian/gdv-20170407-i10+/gdv/local/l1.exe PID=      4985.
  
 Copyright (c) 1988-2017, Gaussian, Inc.  All Rights Reserved.
  
 This is the private, development version of
 the Gaussian(R) DV system of programs. It is based on
 the Gaussian(R) 16 system (copyright 2016, Gaussian, Inc.),
 the Gaussian(R) 09 system (copyright 2009, Gaussian, Inc.),
 the Gaussian(R) 03 system (copyright 2003, Gaussian, Inc.),
 the Gaussian(R) 98 system (copyright 1998, Gaussian, Inc.),
 the Gaussian(R) 94 system (copyright 1995, Gaussian, Inc.),
 the Gaussian 92(TM) system (copyright 1992, Gaussian, Inc.),
 the Gaussian 90(TM) system (copyright 1990, Gaussian, Inc.),
 the Gaussian 88(TM) system (copyright 1988, Gaussian, Inc.),
 the Gaussian 86(TM) system (copyright 1986, Carnegie Mellon
 University), and the Gaussian 82(TM) system (copyright 1983,
 Carnegie Mellon University). Gaussian is a federally registered
 trademark of Gaussian, Inc.
  
 This software contains proprietary and confidential information,
 including trade secrets, belonging to Gaussian, Inc.
  
 This software is provided under written license and may be
 used, copied, transmitted, or stored only in accord with that
 written license.
  
 The following legend is applicable only to US Government
 contracts under FAR:
  
                    RESTRICTED RIGHTS LEGEND
  
 Use, reproduction and disclosure by the US Government is
 subject to restrictions as set forth in subparagraphs (a)
 and (c) of the Commercial Computer Software - Restricted
 Rights clause in FAR 52.227-19.
  
 Gaussian, Inc.
 340 Quinnipiac St., Bldg. 40, Wallingford CT 06492
  
  
 ---------------------------------------------------------------
 Warning -- This program may not be used in any manner that
 competes with the business of Gaussian, Inc. or will provide
 assistance to any competitor of Gaussian, Inc.  The licensee
 of this program is prohibited from giving any competitor of
 Gaussian, Inc. access to this program.  By using this program,
 the user acknowledges that Gaussian, Inc. is engaged in the
 business of creating and licensing software in the field of
 computational chemistry and represents and warrants to the
 licensee that it is not a competitor of Gaussian, Inc. and that
 it will not use this program in any manner prohibited above.
 ---------------------------------------------------------------
  

 Cite this work as:
 Gaussian Development Version, Revision I.10+,
 M. J. Frisch, G. W. Trucks, H. B. Schlegel, G. E. Scuseria, 
 M. A. Robb, J. R. Cheeseman, G. Scalmani, V. Barone, 
 G. A. Petersson, H. Nakatsuji, X. Li, M. Caricato, A. V. Marenich, 
 J. Bloino, B. G. Janesko, R. Gomperts, B. Mennucci, H. P. Hratchian, 
 J. V. Ortiz, A. F. Izmaylov, J. L. Sonnenberg, D. Williams-Young, 
 F. Ding, F. Lipparini, F. Egidi, J. Goings, B. Peng, A. Petrone, 
 T. Henderson, D. Ranasinghe, V. G. Zakrzewski, J. Gao, N. Rega, 
 G. Zheng, W. Liang, M. Hada, M. Ehara, K. Toyota, R. Fukuda, 
 J. Hasegawa, M. Ishida, T. Nakajima, Y. Honda, O. Kitao, H. Nakai, 
 T. Vreven, K. Throssell, J. A. Montgomery, Jr., J. E. Peralta, 
 F. Ogliaro, M. J. Bearpark, J. J. Heyd, E. N. Brothers, K. N. Kudin, 
 V. N. Staroverov, T. A. Keith, R. Kobayashi, J. Normand, 
 K. Raghavachari, A. P. Rendell, J. C. Burant, S. S. Iyengar, 
 J. Tomasi, M. Cossi, J. M. Millam, M. Klene, C. Adamo, R. Cammi, 
 J. W. Ochterski, R. L. Martin, K. Morokuma, O. Farkas, 
 J. B. Foresman, and D. J. Fox, Gaussian, Inc., Wallingford CT, 2016.
 
 *******************************************
 Gaussian DV:  ES64L-GDVRevI.10+ 27-Mar-2017
                 21-Feb-2019 
 *******************************************
 %chk=methylene_gs
 --------------------------------------------
 # CAM-B3LYP/6-31+G* opt freq(SaveNM,HPModes)
 --------------------------------------------
 1/18=20,19=15,26=3,38=1/1,3;
 2/9=110,12=2,17=6,18=5,40=1/2;
 3/5=1,6=6,7=11,11=2,25=1,30=1,71=1,74=-40/1,2,3;
 4//1;
 5/5=2,38=5/2;
 6/7=2,8=2,9=2,10=2,28=1/1;
 7/92=1/1,2,3,16;
 1/18=20,19=15,26=3/3(2);
 2/9=110/2;
 99//99;
 2/9=110/2;
 3/5=1,6=6,7=11,11=2,25=1,30=1,71=1,74=-40/1,2,3;
 4/5=5,16=3,69=1/1;
 5/5=2,38=5/2;
 7/92=1/1,2,3,16;
 1/18=20,19=15,26=3/3(-5);
 2/9=110/2;
 6/7=2,8=2,9=2,10=2,19=2,28=1/1;
 99/9=1/99;
 --------------------------
 pCT- Geometry Optimization
 --------------------------
 Symbolic Z-matrix:
 Charge =  1 Multiplicity = 1
 S                     0.01909  -1.49123   0.06008 
 N                    -5.00691  -0.71971   0.03452 
 N                     5.03037  -0.63167  -0.0033 
 N                    -0.00885   1.62522  -0.09007 
 C                    -1.35473  -0.4281    0.01257 
 C                     1.37364  -0.40426   0.0021 
 C                    -1.17684   0.99281  -0.05597 
 C                     1.17022   1.01328  -0.06508 
 C                    -3.77501  -0.17876   0.00696 
 C                     3.78903  -0.11244  -0.02218 
 C                    -2.61436  -0.99087   0.04304 
 C                     2.64312  -0.94484   0.02272 
 C                    -2.35943   1.79357  -0.09023 
 C                     2.33822   1.83472  -0.10903 
 C                    -3.60161   1.24633  -0.06056 
 C                     3.58995   1.30936  -0.08924 
 C                    -5.17587  -2.16741   0.10092 
 C                    -6.19779   0.12648  -0.00431 
 C                     6.2059    0.23508  -0.05515 
 C                     5.22506  -2.07632   0.0599 
 H                    -2.70615  -2.06808   0.09467 
 H                     2.75429  -2.02027   0.07333 
 H                    -2.22142   2.86829  -0.14131 
 H                     2.18086   2.90681  -0.15945 
 H                    -4.46581   1.89578  -0.08871 
 H                     4.44236   1.97383  -0.12505 
 H                    -4.72921  -2.57548   1.01384 
 H                    -4.7251   -2.65708  -0.76874 
 H                    -6.23827  -2.40216   0.1091 
 H                    -6.23474   0.71806  -0.92449 
 H                    -6.23515   0.79951   0.85806 
 H                    -7.08132  -0.50797   0.02435 
 H                     6.23611   0.91473   0.80218 
 H                     6.22727   0.8206   -0.97975 
 H                     7.10067  -0.38343  -0.0266 
 H                     4.78782  -2.49344   0.97318 
 H                     6.29142  -2.2926    0.06533 
 H                     4.7807   -2.5725   -0.80945 
 

 GradGradGradGradGradGradGradGradGradGradGradGradGradGradGradGradGradGrad
 Berny optimization.
 Initialization pass.
                           ----------------------------
                           !    Initial Parameters    !
                           ! (Angstroms and Degrees)  !
 --------------------------                            --------------------------
 ! Name  Definition              Value          Derivative Info.                !
 --------------------------------------------------------------------------------
 ! R1    R(1,5)                  1.7378         estimate D2E/DX2                !
 ! R2    R(1,6)                  1.7377         estimate D2E/DX2                !
 ! R3    R(2,9)                  1.3457         estimate D2E/DX2                !
 ! R4    R(2,17)                 1.459          estimate D2E/DX2                !
 ! R5    R(2,18)                 1.4614         estimate D2E/DX2                !
 ! R6    R(3,10)                 1.3457         estimate D2E/DX2                !
 ! R7    R(3,19)                 1.4614         estimate D2E/DX2                !
 ! R8    R(3,20)                 1.4591         estimate D2E/DX2                !
 ! R9    R(4,7)                  1.3286         estimate D2E/DX2                !
 ! R10   R(4,8)                  1.3286         estimate D2E/DX2                !
 ! R11   R(5,7)                  1.4336         estimate D2E/DX2                !
 ! R12   R(5,11)                 1.38           estimate D2E/DX2                !
 ! R13   R(6,8)                  1.4336         estimate D2E/DX2                !
 ! R14   R(6,12)                 1.3799         estimate D2E/DX2                !
 ! R15   R(7,13)                 1.4286         estimate D2E/DX2                !
 ! R16   R(8,14)                 1.4286         estimate D2E/DX2                !
 ! R17   R(9,11)                 1.417          estimate D2E/DX2                !
 ! R18   R(9,15)                 1.4372         estimate D2E/DX2                !
 ! R19   R(10,12)                1.417          estimate D2E/DX2                !
 ! R20   R(10,16)                1.4372         estimate D2E/DX2                !
 ! R21   R(11,21)                1.0823         estimate D2E/DX2                !
 ! R22   R(12,22)                1.0823         estimate D2E/DX2                !
 ! R23   R(13,15)                1.3577         estimate D2E/DX2                !
 ! R24   R(13,23)                1.0848         estimate D2E/DX2                !
 ! R25   R(14,16)                1.3577         estimate D2E/DX2                !
 ! R26   R(14,24)                1.0847         estimate D2E/DX2                !
 ! R27   R(15,25)                1.0814         estimate D2E/DX2                !
 ! R28   R(16,26)                1.0814         estimate D2E/DX2                !
 ! R29   R(17,27)                1.0952         estimate D2E/DX2                !
 ! R30   R(17,28)                1.0951         estimate D2E/DX2                !
 ! R31   R(17,29)                1.0881         estimate D2E/DX2                !
 ! R32   R(18,30)                1.0946         estimate D2E/DX2                !
 ! R33   R(18,31)                1.0946         estimate D2E/DX2                !
 ! R34   R(18,32)                1.0881         estimate D2E/DX2                !
 ! R35   R(19,33)                1.0945         estimate D2E/DX2                !
 ! R36   R(19,34)                1.0946         estimate D2E/DX2                !
 ! R37   R(19,35)                1.0881         estimate D2E/DX2                !
 ! R38   R(20,36)                1.0951         estimate D2E/DX2                !
 ! R39   R(20,37)                1.0881         estimate D2E/DX2                !
 ! R40   R(20,38)                1.0952         estimate D2E/DX2                !
 ! A1    A(5,1,6)              103.4537         estimate D2E/DX2                !
 ! A2    A(9,2,17)             120.3837         estimate D2E/DX2                !
 ! A3    A(9,2,18)             120.8411         estimate D2E/DX2                !
 ! A4    A(17,2,18)            118.775          estimate D2E/DX2                !
 ! A5    A(10,3,19)            120.8411         estimate D2E/DX2                !
 ! A6    A(10,3,20)            120.3792         estimate D2E/DX2                !
 ! A7    A(19,3,20)            118.7782         estimate D2E/DX2                !
 ! A8    A(7,4,8)              124.0844         estimate D2E/DX2                !
 ! A9    A(1,5,7)              120.6341         estimate D2E/DX2                !
 ! A10   A(1,5,11)             118.1336         estimate D2E/DX2                !
 ! A11   A(7,5,11)             121.2323         estimate D2E/DX2                !
 ! A12   A(1,6,8)              120.6268         estimate D2E/DX2                !
 ! A13   A(1,6,12)             118.1362         estimate D2E/DX2                !
 ! A14   A(8,6,12)             121.237          estimate D2E/DX2                !
 ! A15   A(4,7,5)              125.5953         estimate D2E/DX2                !
 ! A16   A(4,7,13)             117.4059         estimate D2E/DX2                !
 ! A17   A(5,7,13)             116.9987         estimate D2E/DX2                !
 ! A18   A(4,8,6)              125.6056         estimate D2E/DX2                !
 ! A19   A(4,8,14)             117.3955         estimate D2E/DX2                !
 ! A20   A(6,8,14)             116.9988         estimate D2E/DX2                !
 ! A21   A(2,9,11)             121.259          estimate D2E/DX2                !
 ! A22   A(2,9,15)             120.664          estimate D2E/DX2                !
 ! A23   A(11,9,15)            118.077          estimate D2E/DX2                !
 ! A24   A(3,10,12)            121.2558         estimate D2E/DX2                !
 ! A25   A(3,10,16)            120.6725         estimate D2E/DX2                !
 ! A26   A(12,10,16)           118.0717         estimate D2E/DX2                !
 ! A27   A(5,11,9)             120.8888         estimate D2E/DX2                !
 ! A28   A(5,11,21)            118.9694         estimate D2E/DX2                !
 ! A29   A(9,11,21)            120.1418         estimate D2E/DX2                !
 ! A30   A(6,12,10)            120.8867         estimate D2E/DX2                !
 ! A31   A(6,12,22)            118.9748         estimate D2E/DX2                !
 ! A32   A(10,12,22)           120.1385         estimate D2E/DX2                !
 ! A33   A(7,13,15)            122.0672         estimate D2E/DX2                !
 ! A34   A(7,13,23)            116.8172         estimate D2E/DX2                !
 ! A35   A(15,13,23)           121.1157         estimate D2E/DX2                !
 ! A36   A(8,14,16)            122.0624         estimate D2E/DX2                !
 ! A37   A(8,14,24)            116.8153         estimate D2E/DX2                !
 ! A38   A(16,14,24)           121.1224         estimate D2E/DX2                !
 ! A39   A(9,15,13)            120.7359         estimate D2E/DX2                !
 ! A40   A(9,15,25)            120.0205         estimate D2E/DX2                !
 ! A41   A(13,15,25)           119.2436         estimate D2E/DX2                !
 ! A42   A(10,16,14)           120.7434         estimate D2E/DX2                !
 ! A43   A(10,16,26)           120.0144         estimate D2E/DX2                !
 ! A44   A(14,16,26)           119.2423         estimate D2E/DX2                !
 ! A45   A(2,17,27)            111.1261         estimate D2E/DX2                !
 ! A46   A(2,17,28)            111.0916         estimate D2E/DX2                !
 ! A47   A(2,17,29)            109.1161         estimate D2E/DX2                !
 ! A48   A(27,17,28)           109.1161         estimate D2E/DX2                !
 ! A49   A(27,17,29)           108.1533         estimate D2E/DX2                !
 ! A50   A(28,17,29)           108.144          estimate D2E/DX2                !
 ! A51   A(2,18,30)            111.2717         estimate D2E/DX2                !
 ! A52   A(2,18,31)            111.2795         estimate D2E/DX2                !
 ! A53   A(2,18,32)            108.8659         estimate D2E/DX2                !
 ! A54   A(30,18,31)           109.1999         estimate D2E/DX2                !
 ! A55   A(30,18,32)           108.0516         estimate D2E/DX2                !
 ! A56   A(31,18,32)           108.063          estimate D2E/DX2                !
 ! A57   A(3,19,33)            111.2666         estimate D2E/DX2                !
 ! A58   A(3,19,34)            111.2796         estimate D2E/DX2                !
 ! A59   A(3,19,35)            108.8682         estimate D2E/DX2                !
 ! A60   A(33,19,34)           109.2046         estimate D2E/DX2                !
 ! A61   A(33,19,35)           108.0434         estimate D2E/DX2                !
 ! A62   A(34,19,35)           108.0694         estimate D2E/DX2                !
 ! A63   A(3,20,36)            111.0985         estimate D2E/DX2                !
 ! A64   A(3,20,37)            109.1348         estimate D2E/DX2                !
 ! A65   A(3,20,38)            111.1038         estimate D2E/DX2                !
 ! A66   A(36,20,37)           108.145          estimate D2E/DX2                !
 ! A67   A(36,20,38)           109.1128         estimate D2E/DX2                !
 ! A68   A(37,20,38)           108.1528         estimate D2E/DX2                !
 ! D1    D(6,1,5,7)             -0.0844         estimate D2E/DX2                !
 ! D2    D(6,1,5,11)           179.9313         estimate D2E/DX2                !
 ! D3    D(5,1,6,8)              0.0799         estimate D2E/DX2                !
 ! D4    D(5,1,6,12)          -179.9256         estimate D2E/DX2                !
 ! D5    D(17,2,9,11)           -0.0835         estimate D2E/DX2                !
 ! D6    D(17,2,9,15)          179.9012         estimate D2E/DX2                !
 ! D7    D(18,2,9,11)         -179.945          estimate D2E/DX2                !
 ! D8    D(18,2,9,15)            0.0397         estimate D2E/DX2                !
 ! D9    D(9,2,17,27)           61.1078         estimate D2E/DX2                !
 ! D10   D(9,2,17,28)          -60.5819         estimate D2E/DX2                !
 ! D11   D(9,2,17,29)         -179.7207         estimate D2E/DX2                !
 ! D12   D(18,2,17,27)        -119.0278         estimate D2E/DX2                !
 ! D13   D(18,2,17,28)         119.2825         estimate D2E/DX2                !
 ! D14   D(18,2,17,29)           0.1437         estimate D2E/DX2                !
 ! D15   D(9,2,18,30)           60.8638         estimate D2E/DX2                !
 ! D16   D(9,2,18,31)          -61.1658         estimate D2E/DX2                !
 ! D17   D(9,2,18,32)          179.8396         estimate D2E/DX2                !
 ! D18   D(17,2,18,30)        -118.9998         estimate D2E/DX2                !
 ! D19   D(17,2,18,31)         118.9705         estimate D2E/DX2                !
 ! D20   D(17,2,18,32)          -0.0241         estimate D2E/DX2                !
 ! D21   D(19,3,10,12)         179.7638         estimate D2E/DX2                !
 ! D22   D(19,3,10,16)          -0.2164         estimate D2E/DX2                !
 ! D23   D(20,3,10,12)           0.2064         estimate D2E/DX2                !
 ! D24   D(20,3,10,16)        -179.7738         estimate D2E/DX2                !
 ! D25   D(10,3,19,33)          60.9024         estimate D2E/DX2                !
 ! D26   D(10,3,19,34)         -61.1297         estimate D2E/DX2                !
 ! D27   D(10,3,19,35)         179.8664         estimate D2E/DX2                !
 ! D28   D(20,3,19,33)        -119.5332         estimate D2E/DX2                !
 ! D29   D(20,3,19,34)         118.4347         estimate D2E/DX2                !
 ! D30   D(20,3,19,35)          -0.5692         estimate D2E/DX2                !
 ! D31   D(10,3,20,36)         -60.8792         estimate D2E/DX2                !
 ! D32   D(10,3,20,37)         179.9646         estimate D2E/DX2                !
 ! D33   D(10,3,20,38)          60.7956         estimate D2E/DX2                !
 ! D34   D(19,3,20,36)         119.5543         estimate D2E/DX2                !
 ! D35   D(19,3,20,37)           0.3982         estimate D2E/DX2                !
 ! D36   D(19,3,20,38)        -118.7708         estimate D2E/DX2                !
 ! D37   D(8,4,7,5)              0.0203         estimate D2E/DX2                !
 ! D38   D(8,4,7,13)          -179.9858         estimate D2E/DX2                !
 ! D39   D(7,4,8,6)             -0.0258         estimate D2E/DX2                !
 ! D40   D(7,4,8,14)           179.9605         estimate D2E/DX2                !
 ! D41   D(1,5,7,4)              0.0455         estimate D2E/DX2                !
 ! D42   D(1,5,7,13)          -179.9484         estimate D2E/DX2                !
 ! D43   D(11,5,7,4)          -179.9706         estimate D2E/DX2                !
 ! D44   D(11,5,7,13)            0.0354         estimate D2E/DX2                !
 ! D45   D(1,5,11,9)          -179.9961         estimate D2E/DX2                !
 ! D46   D(1,5,11,21)           -0.0282         estimate D2E/DX2                !
 ! D47   D(7,5,11,9)             0.0197         estimate D2E/DX2                !
 ! D48   D(7,5,11,21)          179.9876         estimate D2E/DX2                !
 ! D49   D(1,6,8,4)             -0.0353         estimate D2E/DX2                !
 ! D50   D(1,6,8,14)           179.9783         estimate D2E/DX2                !
 ! D51   D(12,6,8,4)           179.9703         estimate D2E/DX2                !
 ! D52   D(12,6,8,14)           -0.016          estimate D2E/DX2                !
 ! D53   D(1,6,12,10)          179.9982         estimate D2E/DX2                !
 ! D54   D(1,6,12,22)            0.038          estimate D2E/DX2                !
 ! D55   D(8,6,12,10)           -0.0073         estimate D2E/DX2                !
 ! D56   D(8,6,12,22)         -179.9675         estimate D2E/DX2                !
 ! D57   D(4,7,13,15)          179.9699         estimate D2E/DX2                !
 ! D58   D(4,7,13,23)           -0.0402         estimate D2E/DX2                !
 ! D59   D(5,7,13,15)           -0.0356         estimate D2E/DX2                !
 ! D60   D(5,7,13,23)          179.9543         estimate D2E/DX2                !
 ! D61   D(4,8,14,16)         -179.9626         estimate D2E/DX2                !
 ! D62   D(4,8,14,24)            0.0346         estimate D2E/DX2                !
 ! D63   D(6,8,14,16)            0.0249         estimate D2E/DX2                !
 ! D64   D(6,8,14,24)         -179.9779         estimate D2E/DX2                !
 ! D65   D(2,9,11,5)           179.9113         estimate D2E/DX2                !
 ! D66   D(2,9,11,21)           -0.0562         estimate D2E/DX2                !
 ! D67   D(15,9,11,5)           -0.0738         estimate D2E/DX2                !
 ! D68   D(15,9,11,21)         179.9587         estimate D2E/DX2                !
 ! D69   D(2,9,15,13)         -179.9114         estimate D2E/DX2                !
 ! D70   D(2,9,15,25)            0.0647         estimate D2E/DX2                !
 ! D71   D(11,9,15,13)           0.0738         estimate D2E/DX2                !
 ! D72   D(11,9,15,25)        -179.9501         estimate D2E/DX2                !
 ! D73   D(3,10,12,6)         -179.9583         estimate D2E/DX2                !
 ! D74   D(3,10,12,22)           0.0014         estimate D2E/DX2                !
 ! D75   D(16,10,12,6)           0.0223         estimate D2E/DX2                !
 ! D76   D(16,10,12,22)        179.982          estimate D2E/DX2                !
 ! D77   D(3,10,16,14)         179.9671         estimate D2E/DX2                !
 ! D78   D(3,10,16,26)          -0.0043         estimate D2E/DX2                !
 ! D79   D(12,10,16,14)         -0.0136         estimate D2E/DX2                !
 ! D80   D(12,10,16,26)       -179.985          estimate D2E/DX2                !
 ! D81   D(7,13,15,9)           -0.0191         estimate D2E/DX2                !
 ! D82   D(7,13,15,25)        -179.9954         estimate D2E/DX2                !
 ! D83   D(23,13,15,9)         179.9914         estimate D2E/DX2                !
 ! D84   D(23,13,15,25)          0.0152         estimate D2E/DX2                !
 ! D85   D(8,14,16,10)          -0.0102         estimate D2E/DX2                !
 ! D86   D(8,14,16,26)         179.9614         estimate D2E/DX2                !
 ! D87   D(24,14,16,10)        179.9927         estimate D2E/DX2                !
 ! D88   D(24,14,16,26)         -0.0357         estimate D2E/DX2                !
 --------------------------------------------------------------------------------
 Trust Radius=3.00D-01 FncErr=1.00D-07 GrdErr=1.00D-06 EigMax=2.50D+02 EigMin=1.00D-04
 Number of steps in this run=    206 maximum allowed number of steps=    228.
 GradGradGradGradGradGradGradGradGradGradGradGradGradGradGradGradGradGrad

                          Input orientation:                          
 ---------------------------------------------------------------------
 Center     Atomic      Atomic             Coordinates (Angstroms)
 Number     Number       Type             X           Y           Z
 ---------------------------------------------------------------------
      1         16           0        0.019087   -1.491228    0.060078
      2          7           0       -5.006914   -0.719712    0.034518
      3          7           0        5.030373   -0.631667   -0.003300
      4          7           0       -0.008854    1.625216   -0.090067
      5          6           0       -1.354731   -0.428100    0.012574
      6          6           0        1.373644   -0.404264    0.002096
      7          6           0       -1.176840    0.992813   -0.055970
      8          6           0        1.170219    1.013277   -0.065079
      9          6           0       -3.775012   -0.178764    0.006963
     10          6           0        3.789034   -0.112441   -0.022180
     11          6           0       -2.614362   -0.990868    0.043037
     12          6           0        2.643122   -0.944842    0.022721
     13          6           0       -2.359433    1.793570   -0.090233
     14          6           0        2.338217    1.834722   -0.109034
     15          6           0       -3.601611    1.246333   -0.060557
     16          6           0        3.589954    1.309362   -0.089240
     17          6           0       -5.175867   -2.167406    0.100925
     18          6           0       -6.197790    0.126482   -0.004308
     19          6           0        6.205899    0.235077   -0.055150
     20          6           0        5.225062   -2.076322    0.059898
     21          1           0       -2.706153   -2.068079    0.094675
     22          1           0        2.754288   -2.020272    0.073326
     23          1           0       -2.221420    2.868293   -0.141315
     24          1           0        2.180860    2.906811   -0.159450
     25          1           0       -4.465814    1.895779   -0.088712
     26          1           0        4.442363    1.973827   -0.125048
     27          1           0       -4.729214   -2.575476    1.013836
     28          1           0       -4.725100   -2.657081   -0.768739
     29          1           0       -6.238269   -2.402155    0.109104
     30          1           0       -6.234741    0.718062   -0.924485
     31          1           0       -6.235148    0.799513    0.858059
     32          1           0       -7.081317   -0.507970    0.024354
     33          1           0        6.236109    0.914734    0.802180
     34          1           0        6.227270    0.820604   -0.979746
     35          1           0        7.100667   -0.383430   -0.026600
     36          1           0        4.787820   -2.493438    0.973184
     37          1           0        6.291415   -2.292602    0.065329
     38          1           0        4.780695   -2.572505   -0.809446
 ---------------------------------------------------------------------
                    Distance matrix (angstroms):
                    1          2          3          4          5
     1  S    0.000000
     2  N    5.084936   0.000000
     3  N    5.084865  10.037744   0.000000
     4  N    3.120184   5.522211   5.522214   0.000000
     5  C    1.737779   3.663872   6.388368   2.457240   0.000000
     6  C    1.737722   6.388433   3.663797   2.457353   2.728499
     7  C    2.759378   4.196474   6.416479   1.328642   1.433644
     8  C    2.759224   6.416396   4.196480   1.328648   2.908431
     9  C    4.015043   1.345721   8.817031   4.177045   2.433097
    10  C    4.015011   8.817068   1.345687   4.177082   5.153558
    11  C    2.680616   2.407883   7.653309   3.694630   1.379966
    12  C    2.680577   7.653356   2.407846   3.694712   4.031123
    13  C    4.058306   3.652575   7.778082   2.356600   2.440453
    14  C    4.058190   7.777961   3.652664   2.356479   4.332784
    15  C    4.540732   2.418521   8.834099   3.612801   2.803131
    16  C    4.540560   8.833945   2.418633   3.612642   5.242046
    17  C    5.238934   1.459032  10.321661   6.412370   4.199294
    18  C    6.424227   1.461416  11.253729   6.368398   4.874737
    19  C    6.424177  11.253747   1.461436   6.368427   7.589962
    20  C    5.238750  10.321548   1.459084   6.412312   6.783255
    21  H    2.785837   2.667436   7.869353   4.577115   2.126644
    22  H    2.785927   7.869512   2.667332   4.577252   4.407124
    23  H    4.905697   4.545731   8.053401   2.538369   3.411897
    24  H    4.905528   8.053160   4.545870   2.538138   4.863294
    25  H    5.622126   2.673718   9.827149   4.465166   3.884522
    26  H    5.621944   9.826975   2.673795   4.464984   6.276503
    27  H    4.963025   2.116610  10.003125   6.414532   4.123213
    28  H    4.955145   2.116138   9.992870   6.406375   4.115603
    29  H    6.323504   2.086244  11.407434   7.420580   5.268316
    30  H    6.705273   2.120010  11.383020   6.346720   5.099634
    31  H    6.708183   2.120100  11.388686   6.351966   5.102975
    32  H    7.168251   2.085207  12.112354   7.388052   5.727155
    33  H    6.707513  11.387110   2.119895   6.348264   7.749035
    34  H    6.705769  11.384559   2.120165   6.350446   7.747948
    35  H    7.168229  12.112404   2.085254   7.388097   8.455607
    36  H    4.957721   9.998200   2.116257   6.411076   6.551284
    37  H    6.323316  11.407330   2.086539   7.420703   7.870369
    38  H    4.959651   9.997120   2.116380   6.409223   6.551156
                    6          7          8          9         10
     6  C    0.000000
     7  C    2.908636   0.000000
     8  C    1.433638   2.347166   0.000000
     9  C    5.153594   2.850798   5.087382   0.000000
    10  C    2.433075   5.087497   2.850838   7.564393   0.000000
    11  C    4.031126   2.451788   4.283847   1.417012   6.463696
    12  C    1.379936   4.284017   2.451812   6.463711   1.417047
    13  C    4.332997   1.428605   3.614959   2.429694   6.437480
    14  C    2.440453   3.614865   1.428609   6.437325   2.429785
    15  C    5.242286   2.437993   4.777520   1.437194   7.514610
    16  C    2.803013   4.777408   2.437902   7.514419   1.437238
    17  C    6.783401   5.099394   7.100500   2.434322   9.198232
    18  C    7.590016   5.095403   7.421432   2.441957   9.989697
    19  C    4.874702   7.421523   5.095466   9.989680   2.441945
    20  C    4.199111   7.100518   5.099313   9.198090   2.434284
    21  H    4.406994   3.424989   4.954446   2.172479   6.784219
    22  H    2.126672   4.954711   3.425034   6.784344   2.172473
    23  H    4.863609   2.148455   3.866538   3.423476   6.710032
    24  H    3.411878   3.866296   2.148435   6.709760   3.423588
    25  H    6.276760   3.410832   5.704756   2.188627   8.495875
    26  H    3.884394   5.704612   3.410744   8.495665   2.188593
    27  H    6.556116   5.147478   6.989028   2.769210   8.927509
    28  H    6.547064   5.140030   6.980075   2.765219   8.917567
    29  H    7.870467   6.096813   8.159731   3.319870  10.286245
    30  H    7.746334   5.139277   7.460506   2.778877  10.098512
    31  H    7.750837   5.143860   7.465744   2.780946  10.103994
    32  H    8.455627   6.092754   8.391069   3.322700  10.877644
    33  H    5.101319   7.462864   5.140535  10.102013   2.778999
    34  H    5.101176   7.463502   5.142714  10.100395   2.780738
    35  H    5.727133   8.391188   6.092823  10.877657   3.322706
    36  H    4.118769   6.985003   5.144131   8.922634   2.767213
    37  H    5.268234   8.159871   6.096926  10.286140   3.320041
    38  H    4.119207   6.983655   5.142709   8.921695   2.766784
                   11         12         13         14         15
    11  C    0.000000
    12  C    5.257725   0.000000
    13  C    2.799258   5.704140   0.000000
    14  C    5.703957   2.799339   4.697867   0.000000
    15  C    2.447542   6.618525   1.357703   5.969096   0.000000
    16  C    6.618315   2.447542   5.969058   1.357660   7.191898
    17  C    2.819379   7.914377   4.863967   8.516018   3.762708
    18  C    3.753887   8.905626   4.185636   8.705887   2.827963
    19  C    8.905593   3.753885   8.706035   4.185777   9.859509
    20  C    7.914231   2.819227   8.516053   4.864018   9.432110
    21  H    1.082347   5.466405   3.881590   6.381146   3.436753
    22  H    5.466534   1.082344   6.381402   3.881668   7.147453
    23  H    3.883493   6.183096   1.084752   4.675426   2.131245
    24  H    6.182804   3.883569   4.675292   1.084748   6.016971
    25  H    3.431904   7.656273   2.108861   6.804336   1.081397
    26  H    7.656046   3.431870   6.804272   2.108800   8.077061
    27  H    2.815321   7.615288   5.091502   8.405907   4.126988
    28  H    2.808996   7.605844   5.085769   8.396544   4.123152
    29  H    3.889576   9.000574   5.717449   9.568429   4.504688
    30  H    4.118699   9.081789   4.107397   8.683749   2.821137
    31  H    4.120657   9.086487   4.112004   8.689621   2.824716
    32  H    4.493020   9.734248   5.254181   9.707401   3.897838
    33  H    9.085068   4.120090   8.686317   4.107341   9.881043
    34  H    9.083059   4.119206   8.687310   4.112336   9.880944
    35  H    9.734250   4.493031   9.707568   5.254325  10.825712
    36  H    7.610203   2.810918   8.401935   5.089668   9.243217
    37  H    9.000438   3.889514   9.568604   5.717778  10.507706
    38  H    7.610202   2.812651   8.400078   5.087231   9.241613
                   16         17         18         19         20
    16  C    0.000000
    17  C    9.432056   0.000000
    18  C    9.859327   2.513429   0.000000
    19  C    2.828148  11.633610  12.404268   0.000000
    20  C    3.762801  10.401408  11.633486   2.513532   0.000000
    21  H    7.147160   2.471718   4.125218   9.206066   7.931295
    22  H    3.436747   7.931568   9.206209   4.125133   2.471446
    23  H    6.017063   5.843432   4.831957   8.829551   8.940906
    24  H    2.131272   8.940744   8.829274   4.832182   5.843534
    25  H    8.077084   4.129117   2.477352  10.800210  10.474385
    26  H    1.081387  10.474312  10.800005   2.477539   4.129229
    27  H    9.247556   1.095183   3.239430  11.341016  10.012330
    28  H    9.237667   1.095120   3.240585  11.329630  10.001481
    29  H   10.507553   1.088059   2.531503  12.721607  11.468066
    30  H    9.877848   3.240156   1.094558  12.480326  11.836581
    31  H    9.883822   3.240053   1.094552  12.487281  11.842461
    32  H   10.825508   2.527911   1.088105  13.308214  12.405964
    33  H    2.820018  11.841645  12.484935   1.094468   3.243396
    34  H    2.826185  11.837549  12.482603   1.094613   3.236891
    35  H    3.898022  12.406132  13.308248   1.088107   2.528094
    36  H    4.126126  10.007107  11.335921   3.242408   1.095105
    37  H    4.505101  11.468021  12.721520   2.531993   1.088080
    38  H    4.123766  10.006298  11.334015   3.237697   1.095180
                   21         22         23         24         25
    21  H    0.000000
    22  H    5.460692   0.000000
    23  H    4.965726   6.978669   0.000000
    24  H    6.978324   4.965799   4.402486   0.000000
    25  H    4.340762   8.215327   2.446601   6.723502   0.000000
    26  H    8.215021   4.340712   6.723566   2.446638   8.908593
    27  H    2.279273   7.562779   6.103935   8.898382   4.612712
    28  H    2.273445   7.553532   6.098510   8.889342   4.610661
    29  H    3.547909   9.000733   6.631396   9.956856   4.653275
    30  H    4.610011   9.449695   4.619912   8.729160   2.283557
    31  H    4.610819   9.453939   4.624782   8.735286   2.286638
    32  H    4.645530   9.951311   5.919898   9.873320   3.554103
    33  H    9.453137   4.611786   8.731345   4.619323  10.783659
    34  H    9.450128   4.608811   8.733634   4.625860  10.783876
    35  H    9.951205   4.645455   9.873611   5.920122  11.789069
    36  H    7.557271   2.273518   8.894927   6.102605  10.296728
    37  H    9.000417   3.547604   9.957204   6.631824  11.544880
    38  H    7.558093   2.278283   8.892598   6.099553  10.294802
                   26         27         28         29         30
    26  H    0.000000
    27  H   10.301021   0.000000
    28  H   10.290871   1.784447   0.000000
    29  H   11.544693   1.768001   1.767845   0.000000
    30  H   10.780379   4.107444   3.700657   3.286956   0.000000
    31  H   10.786786   3.699007   4.107890   3.288104   1.784404
    32  H   11.788844   3.284211   3.286250   2.075055   1.766393
    33  H    2.280122  11.509331  11.635023  12.926416  12.591352
    34  H    2.290486  11.642692  11.493181  12.921356  12.462555
    35  H    3.554285  12.076161  12.065199  13.491512  13.410913
    36  H    4.613233   9.517475   9.672472  11.060272  11.636655
    37  H    4.653779  11.064988  11.054054  12.530240  12.920852
    38  H    4.609990   9.683116   9.506258  11.058496  11.496995
                   31         32         33         34         35
    31  H    0.000000
    32  H    1.766516   0.000000
    33  H   12.471915  13.415773   0.000000
    34  H   12.597215  13.412376   1.784432   0.000000
    35  H   13.417375  14.182623   1.766230   1.766638   0.000000
    36  H   11.504895  12.071404   3.707077   4.107167   3.286482
    37  H   12.926886  13.491352   3.291355   3.284562   2.075639
    38  H   11.640441  12.069170   4.108090   3.692529   3.284382
                   36         37         38
    36  H    0.000000
    37  H    1.767861   0.000000
    38  H    1.784396   1.768008   0.000000
 Stoichiometry    C16H18N3S(1+)
 Framework group  C1[X(C16H18N3S)]
 Deg. of freedom   108
 Full point group                 C1      NOp   1
 Largest Abelian subgroup         C1      NOp   1
 Largest concise Abelian subgroup C1      NOp   1
                         Standard orientation:                         
 ---------------------------------------------------------------------
 Center     Atomic      Atomic             Coordinates (Angstroms)
 Number     Number       Type             X           Y           Z
 ---------------------------------------------------------------------
      1         16           0       -0.000058   -1.350455   -0.005364
      2          7           0        5.018853   -0.533722    0.001895
      3          7           0       -5.018890   -0.533668   -0.000125
      4          7           0       -0.000004    1.769727   -0.001251
      5          6           0        1.364199   -0.274039   -0.002823
      6          6           0       -1.364301   -0.274112   -0.003170
      7          6           0        1.173602    1.146879   -0.001539
      8          6           0       -1.173564    1.146781   -0.001740
      9          6           0        3.782162   -0.003103   -0.000295
     10          6           0       -3.782230   -0.003060   -0.001174
     11          6           0        2.628821   -0.826342   -0.002418
     12          6           0       -2.628904   -0.826381   -0.002965
     13          6           0        2.348992    1.958895   -0.000616
     14          6           0       -2.348876    1.958916   -0.000459
     15          6           0        3.596023    1.421986   -0.000213
     16          6           0       -3.595876    1.422045   -0.000073
     17          6           0        5.200739   -1.981371    0.003968
     18          6           0        6.202110    0.323966    0.005278
     19          6           0       -6.202158    0.324017    0.006893
     20          6           0       -5.200669   -1.981379    0.003717
     21          1           0        2.730245   -1.903926   -0.003218
     22          1           0       -2.730447   -1.903951   -0.003539
     23          1           0        2.201372    3.033555   -0.000418
     24          1           0       -2.201114    3.033553    0.000247
     25          1           0        4.454387    2.079732    0.000564
     26          1           0       -4.454206    2.079818    0.001544
     27          1           0        4.761303   -2.435695   -0.890411
     28          1           0        4.750830   -2.433813    0.894005
     29          1           0        6.265180   -2.206746    0.010569
     30          1           0        6.230228    0.958272    0.896862
     31          1           0        6.236996    0.956204   -0.887528
     32          1           0        7.091267   -0.303215    0.009503
     33          1           0       -6.234916    0.962506   -0.881430
     34          1           0       -6.232324    0.951963    0.902969
     35          1           0       -7.091355   -0.303117    0.004164
     36          1           0       -4.756171   -2.436861   -0.887469
     37          1           0       -6.265058   -2.207194    0.004633
     38          1           0       -4.755428   -2.432341    0.896921
 ---------------------------------------------------------------------
 Rotational constants (GHZ):           1.0622065           0.1327513           0.1183585
 Standard basis: 6-31+G(d) (6D, 7F)
 There are   420 symmetry adapted cartesian basis functions of A   symmetry.
 There are   420 symmetry adapted basis functions of A   symmetry.
   420 basis functions,   736 primitive gaussians,   420 cartesian basis functions
    75 alpha electrons       75 beta electrons
       nuclear repulsion energy      1586.6419063708 Hartrees.
 NAtoms=   38 NActive=   38 NUniq=   38 SFac= 1.00D+00 NAtFMM=   60 NAOKFM=F Big=F
 Integral buffers will be    131072 words long.
 Raffenetti 2 integral format.
 Two-electron integral symmetry is turned on.
 One-electron integrals computed using PRISM.
 NBasis=   420 RedAO= T EigKep=  1.23D-06  NBF=   420
 NBsUse=   417 1.00D-06 EigRej=  2.61D-07 NBFU=   417
 ExpMin= 4.05D-02 ExpMax= 2.19D+04 ExpMxC= 3.30D+03 IAcc=3 IRadAn=         5 AccDes= 0.00D+00
 Harris functional with IExCor=20419 and IRadAn=       5 diagonalized for initial guess.
 HarFok:  IExCor=20419 AccDes= 0.00D+00 IRadAn=         5 IDoV= 1 UseB2=F ITyADJ=14
 ICtDFT=  3500011 ScaDFX=  1.000000  1.000000  1.000000  1.000000
 FoFCou: FMM=F IPFlag=           0 FMFlag=      100000 FMFlg1=           0
         NFxFlg=           0 DoJE=T BraDBF=F KetDBF=T FulRan=T
         wScrn=  0.000000 ICntrl=       500 IOpCl=  0 I1Cent=   200000004 NGrid=           0
         NMat0=    1 NMatS0=      1 NMatT0=    0 NMatD0=    1 NMtDS0=    0 NMtDT0=    0
 Petite list used in FoFCou.
 Requested convergence on RMS density matrix=1.00D-08 within 128 cycles.
 Requested convergence on MAX density matrix=1.00D-06.
 Requested convergence on             energy=1.00D-06.
 No special actions if energy rises.
 SCF Done:  E(RCAM-B3LYP) =  -1182.33878782     A.U. after   17 cycles
            NFock= 17  Conv=0.29D-08     -V/T= 2.0072

 **********************************************************************

            Population analysis using the SCF Density.

 **********************************************************************

 Orbital symmetries:
       Occupied  (A) (A) (A) (A) (A) (A) (A) (A) (A) (A) (A) (A)
                 (A) (A) (A) (A) (A) (A) (A) (A) (A) (A) (A) (A)
                 (A) (A) (A) (A) (A) (A) (A) (A) (A) (A) (A) (A)
                 (A) (A) (A) (A) (A) (A) (A) (A) (A) (A) (A) (A)
                 (A) (A) (A) (A) (A) (A) (A) (A) (A) (A) (A) (A)
                 (A) (A) (A) (A) (A) (A) (A) (A) (A) (A) (A) (A)
                 (A) (A) (A)
       Virtual   (A) (A) (A) (A) (A) (A) (A) (A) (A) (A) (A) (A)
                 (A) (A) (A) (A) (A) (A) (A) (A) (A) (A) (A) (A)
                 (A) (A) (A) (A) (A) (A) (A) (A) (A) (A) (A) (A)
                 (A) (A) (A) (A) (A) (A) (A) (A) (A) (A) (A) (A)
                 (A) (A) (A) (A) (A) (A) (A) (A) (A) (A) (A) (A)
                 (A) (A) (A) (A) (A) (A) (A) (A) (A) (A) (A) (A)
                 (A) (A) (A) (A) (A) (A) (A) (A) (A) (A) (A) (A)
                 (A) (A) (A) (A) (A) (A) (A) (A) (A) (A) (A) (A)
                 (A) (A) (A) (A) (A) (A) (A) (A) (A) (A) (A) (A)
                 (A) (A) (A) (A) (A) (A) (A) (A) (A) (A) (A) (A)
                 (A) (A) (A) (A) (A) (A) (A) (A) (A) (A) (A) (A)
                 (A) (A) (A) (A) (A) (A) (A) (A) (A) (A) (A) (A)
                 (A) (A) (A) (A) (A) (A) (A) (A) (A) (A) (A) (A)
                 (A) (A) (A) (A) (A) (A) (A) (A) (A) (A) (A) (A)
                 (A) (A) (A) (A) (A) (A) (A) (A) (A) (A) (A) (A)
                 (A) (A) (A) (A) (A) (A) (A) (A) (A) (A) (A) (A)
                 (A) (A) (A) (A) (A) (A) (A) (A) (A) (A) (A) (A)
                 (A) (A) (A) (A) (A) (A) (A) (A) (A) (A) (A) (A)
                 (A) (A) (A) (A) (A) (A) (A) (A) (A) (A) (A) (A)
                 (A) (A) (A) (A) (A) (A) (A) (A) (A) (A) (A) (A)
                 (A) (A) (A) (A) (A) (A) (A) (A) (A) (A) (A) (A)
                 (A) (A) (A) (A) (A) (A) (A) (A) (A) (A) (A) (A)
                 (A) (A) (A) (A) (A) (A) (A) (A) (A) (A) (A) (A)
                 (A) (A) (A) (A) (A) (A) (A) (A) (A) (A) (A) (A)
                 (A) (A) (A) (A) (A) (A) (A) (A) (A) (A) (A) (A)
                 (A) (A) (A) (A) (A) (A) (A) (A) (A) (A) (A) (A)
                 (A) (A) (A) (A) (A) (A) (A) (A) (A) (A) (A) (A)
                 (A) (A) (A) (A) (A) (A) (A) (A) (A) (A) (A) (A)
                 (A) (A) (A) (A) (A) (A)
 The electronic state is 1-A.
 Alpha  occ. eigenvalues --  -89.12602 -14.57800 -14.57798 -14.55973 -10.45699
 Alpha  occ. eigenvalues --  -10.45697 -10.45115 -10.45114 -10.43506 -10.43505
 Alpha  occ. eigenvalues --  -10.40932 -10.40930 -10.40814 -10.40813 -10.40080
 Alpha  occ. eigenvalues --  -10.40079 -10.39667 -10.39667 -10.39400 -10.39400
 Alpha  occ. eigenvalues --   -8.18595  -6.15161  -6.14722  -6.14333  -1.18110
 Alpha  occ. eigenvalues --   -1.17852  -1.17221  -1.07551  -1.07183  -1.02658
 Alpha  occ. eigenvalues --   -0.98174  -0.97180  -0.95275  -0.93067  -0.93026
 Alpha  occ. eigenvalues --   -0.90278  -0.88863  -0.84403  -0.81901  -0.81698
 Alpha  occ. eigenvalues --   -0.79513  -0.75398  -0.74928  -0.71684  -0.70837
 Alpha  occ. eigenvalues --   -0.70693  -0.68084  -0.66688  -0.66605  -0.65207
 Alpha  occ. eigenvalues --   -0.64005  -0.63638  -0.63252  -0.62935  -0.61740
 Alpha  occ. eigenvalues --   -0.61589  -0.59634  -0.59633  -0.59502  -0.59287
 Alpha  occ. eigenvalues --   -0.58026  -0.57870  -0.57528  -0.56782  -0.55785
 Alpha  occ. eigenvalues --   -0.53840  -0.53764  -0.53128  -0.52469  -0.48680
 Alpha  occ. eigenvalues --   -0.45814  -0.45805  -0.43433  -0.39496  -0.36392
 Alpha virt. eigenvalues --   -0.19892  -0.10714  -0.08966  -0.08045  -0.07073
 Alpha virt. eigenvalues --   -0.07066  -0.05384  -0.05233  -0.04751  -0.04230
 Alpha virt. eigenvalues --   -0.03684  -0.03080  -0.02864  -0.02662  -0.02394
 Alpha virt. eigenvalues --   -0.02115  -0.01865  -0.01459  -0.01005  -0.00650
 Alpha virt. eigenvalues --   -0.00627   0.00038   0.00440   0.00938   0.01161
 Alpha virt. eigenvalues --    0.01578   0.01907   0.02224   0.02466   0.02839
 Alpha virt. eigenvalues --    0.03105   0.04191   0.04206   0.04642   0.04718
 Alpha virt. eigenvalues --    0.05267   0.05970   0.06516   0.06612   0.06715
 Alpha virt. eigenvalues --    0.07567   0.07720   0.08678   0.08739   0.09227
 Alpha virt. eigenvalues --    0.09499   0.09625   0.09675   0.10187   0.10249
 Alpha virt. eigenvalues --    0.10308   0.11770   0.11996   0.12016   0.12110
 Alpha virt. eigenvalues --    0.12803   0.12875   0.13217   0.13611   0.13794
 Alpha virt. eigenvalues --    0.14202   0.14477   0.15097   0.15362   0.15707
 Alpha virt. eigenvalues --    0.16051   0.16122   0.16325   0.16947   0.17032
 Alpha virt. eigenvalues --    0.17186   0.17447   0.18051   0.18636   0.18781
 Alpha virt. eigenvalues --    0.18877   0.19256   0.19484   0.19816   0.19879
 Alpha virt. eigenvalues --    0.20112   0.20183   0.20667   0.21577   0.21704
 Alpha virt. eigenvalues --    0.21937   0.22756   0.22878   0.23092   0.23181
 Alpha virt. eigenvalues --    0.23477   0.24683   0.24843   0.25043   0.25148
 Alpha virt. eigenvalues --    0.25300   0.25919   0.26411   0.26463   0.27776
 Alpha virt. eigenvalues --    0.27792   0.28206   0.28695   0.29385   0.30180
 Alpha virt. eigenvalues --    0.30267   0.31213   0.32352   0.32937   0.34291
 Alpha virt. eigenvalues --    0.34473   0.35116   0.36595   0.37579   0.38975
 Alpha virt. eigenvalues --    0.40873   0.41112   0.41282   0.43033   0.44097
 Alpha virt. eigenvalues --    0.45331   0.47093   0.51013   0.51569   0.54242
 Alpha virt. eigenvalues --    0.57684   0.59296   0.59834   0.60148   0.60237
 Alpha virt. eigenvalues --    0.60978   0.61488   0.61496   0.62203   0.62697
 Alpha virt. eigenvalues --    0.63349   0.63589   0.63720   0.64934   0.65194
 Alpha virt. eigenvalues --    0.65858   0.66273   0.66294   0.67018   0.67470
 Alpha virt. eigenvalues --    0.67972   0.69477   0.70500   0.71145   0.72128
 Alpha virt. eigenvalues --    0.72333   0.73005   0.73471   0.74358   0.74566
 Alpha virt. eigenvalues --    0.76279   0.76541   0.76848   0.81225   0.82149
 Alpha virt. eigenvalues --    0.86173   0.86899   0.86972   0.87179   0.87249
 Alpha virt. eigenvalues --    0.88111   0.88720   0.88926   0.89879   0.89928
 Alpha virt. eigenvalues --    0.90840   0.90847   0.91508   0.92034   0.92329
 Alpha virt. eigenvalues --    0.92962   0.94320   0.94501   0.96999   0.97936
 Alpha virt. eigenvalues --    0.98602   0.98819   0.99621   1.00095   1.02177
 Alpha virt. eigenvalues --    1.03691   1.03802   1.05691   1.06081   1.06145
 Alpha virt. eigenvalues --    1.06868   1.08996   1.08999   1.10490   1.10712
 Alpha virt. eigenvalues --    1.12319   1.12611   1.14465   1.15414   1.16350
 Alpha virt. eigenvalues --    1.16949   1.16988   1.17169   1.17642   1.17893
 Alpha virt. eigenvalues --    1.22051   1.22991   1.23306   1.24290   1.25363
 Alpha virt. eigenvalues --    1.28541   1.28629   1.29003   1.29151   1.29438
 Alpha virt. eigenvalues --    1.31745   1.32741   1.33050   1.34751   1.36049
 Alpha virt. eigenvalues --    1.37413   1.39634   1.39968   1.40471   1.41629
 Alpha virt. eigenvalues --    1.43109   1.44349   1.44516   1.45978   1.48804
 Alpha virt. eigenvalues --    1.51698   1.51944   1.52364   1.53611   1.56562
 Alpha virt. eigenvalues --    1.61350   1.62897   1.65737   1.70902   1.74170
 Alpha virt. eigenvalues --    1.74312   1.80445   1.80609   1.81048   1.81456
 Alpha virt. eigenvalues --    1.83705   1.84572   1.86181   1.86915   1.86958
 Alpha virt. eigenvalues --    1.88273   1.88339   1.90202   1.92982   1.94000
 Alpha virt. eigenvalues --    1.94522   1.94695   1.96086   1.96104   1.97520
 Alpha virt. eigenvalues --    2.00244   2.00418   2.02242   2.02819   2.06031
 Alpha virt. eigenvalues --    2.06446   2.07009   2.07031   2.10866   2.11034
 Alpha virt. eigenvalues --    2.11764   2.13025   2.16931   2.16977   2.17289
 Alpha virt. eigenvalues --    2.22100   2.22691   2.22697   2.22883   2.23366
 Alpha virt. eigenvalues --    2.23967   2.26080   2.26359   2.26980   2.29927
 Alpha virt. eigenvalues --    2.31605   2.31951   2.32107   2.34002   2.34381
 Alpha virt. eigenvalues --    2.37093   2.45978   2.47904   2.50000   2.51613
 Alpha virt. eigenvalues --    2.52261   2.52389   2.53601   2.54549   2.56532
 Alpha virt. eigenvalues --    2.58878   2.59236   2.63756   2.68138   2.70081
 Alpha virt. eigenvalues --    2.70905   2.71892   2.73633   2.78729   2.80026
 Alpha virt. eigenvalues --    2.81129   2.82370   2.85398   2.86661   2.92726
 Alpha virt. eigenvalues --    2.98285   3.03206   3.12348   3.17832   3.30071
 Alpha virt. eigenvalues --    3.34120   3.39699   3.94016   4.12747   4.12976
 Alpha virt. eigenvalues --    4.25090   4.27104   4.27477   4.29990   4.30891
 Alpha virt. eigenvalues --    4.31769   4.32987   4.36120   4.37500   4.37583
 Alpha virt. eigenvalues --    4.39887   4.41360   4.44061   4.45683   4.52369
 Alpha virt. eigenvalues --    4.68075   4.77637
          Condensed to atoms (all electrons):
               1          2          3          4          5          6
     1  S   16.199461  -0.006644  -0.006641  -0.078938   0.539014   0.539079
     2  N   -0.006644   6.983758  -0.000000   0.000462  -0.076188   0.006742
     3  N   -0.006641  -0.000000   6.983718   0.000463   0.006747  -0.076148
     4  N   -0.078938   0.000462   0.000463   7.235159   0.186034   0.185761
     5  C    0.539014  -0.076188   0.006747   0.186034  11.073056   0.477809
     6  C    0.539079   0.006742  -0.076148   0.185761   0.477809  11.072565
     7  C   -0.448469  -0.059166  -0.003325  -0.190203  -1.134115  -1.144447
     8  C   -0.448413  -0.003324  -0.059169  -0.190120  -1.144270  -1.133886
     9  C   -0.445167   0.652490   0.000389   0.033128  -3.627396  -0.419724
    10  C   -0.445405   0.000389   0.652471   0.033041  -0.419853  -3.627132
    11  C    0.165059  -0.550181   0.001223   0.025191   1.755871   0.392915
    12  C    0.164999   0.001223  -0.550350   0.025153   0.393049   1.756094
    13  C    0.009140  -0.001405  -0.000962  -0.153318  -0.896833  -0.923354
    14  C    0.009192  -0.000962  -0.001365  -0.153395  -0.923470  -0.897013
    15  C   -0.039760   0.050086  -0.000245   0.117002  -0.980566   0.344786
    16  C   -0.039771  -0.000245   0.050177   0.117203   0.344861  -0.980453
    17  C    0.007053   0.261889   0.000000  -0.000616   0.238019  -0.003518
    18  C   -0.003716   0.269636   0.000001  -0.000657  -0.096219  -0.004109
    19  C   -0.003718   0.000001   0.269653  -0.000657  -0.004111  -0.096203
    20  C    0.007068   0.000000   0.261912  -0.000616  -0.003512   0.238065
    21  H    0.038389  -0.024779  -0.000000  -0.000281  -0.005330   0.012760
    22  H    0.038375  -0.000000  -0.024793  -0.000281   0.012749  -0.005384
    23  H   -0.001422  -0.000182  -0.000000  -0.014457   0.053853   0.010667
    24  H   -0.001424  -0.000000  -0.000182  -0.014466   0.010665   0.053870
    25  H    0.000542  -0.023239  -0.000000   0.000324   0.035882   0.000777
    26  H    0.000542  -0.000000  -0.023230   0.000325   0.000777   0.035884
    27  H    0.001525  -0.033731  -0.000000  -0.000002   0.051672   0.000022
    28  H    0.001591  -0.034245  -0.000000  -0.000002   0.051574   0.000034
    29  H   -0.000398  -0.042352   0.000000   0.000001  -0.011968  -0.000029
    30  H    0.000147  -0.036091   0.000000  -0.000006  -0.003095   0.000041
    31  H    0.000137  -0.035787   0.000000  -0.000006  -0.003070   0.000041
    32  H   -0.000168  -0.040223   0.000000   0.000001  -0.001652  -0.000027
    33  H    0.000142   0.000000  -0.035880  -0.000006   0.000041  -0.003025
    34  H    0.000142   0.000000  -0.035997  -0.000006   0.000042  -0.003136
    35  H   -0.000168   0.000000  -0.040198   0.000001  -0.000027  -0.001651
    36  H    0.001558  -0.000000  -0.033827  -0.000002   0.000022   0.051402
    37  H   -0.000399   0.000000  -0.042311   0.000001  -0.000029  -0.011967
    38  H    0.001565  -0.000000  -0.034147  -0.000002   0.000035   0.051887
               7          8          9         10         11         12
     1  S   -0.448469  -0.448413  -0.445167  -0.445405   0.165059   0.164999
     2  N   -0.059166  -0.003324   0.652490   0.000389  -0.550181   0.001223
     3  N   -0.003325  -0.059169   0.000389   0.652471   0.001223  -0.550350
     4  N   -0.190203  -0.190120   0.033128   0.033041   0.025191   0.025153
     5  C   -1.134115  -1.144270  -3.627396  -0.419853   1.755871   0.393049
     6  C   -1.144447  -1.133886  -0.419724  -3.627132   0.392915   1.756094
     7  C   11.851731   0.959436  -1.402409  -0.187647  -0.327693  -0.113750
     8  C    0.959436  11.851256  -0.187919  -1.402367  -0.113669  -0.327467
     9  C   -1.402409  -0.187919  14.112326  -0.076944  -2.866116  -0.103007
    10  C   -0.187647  -1.402367  -0.076944  14.112645  -0.103061  -2.865564
    11  C   -0.327693  -0.113669  -2.866116  -0.103061  11.389820  -0.195302
    12  C   -0.113750  -0.327467  -0.103007  -2.865564  -0.195302  11.390630
    13  C   -1.809564   0.312533   0.449086  -0.043340  -0.737957  -0.115110
    14  C    0.312725  -1.809353  -0.043481   0.449400  -0.115018  -0.738741
    15  C   -0.508851  -0.089824   0.709475   0.024797  -2.966922   0.024120
    16  C   -0.089920  -0.509376   0.024819   0.708409   0.024076  -2.967871
    17  C    0.044681   0.006895  -0.938092  -0.000281   0.688634  -0.000896
    18  C    0.009827  -0.003991  -0.400089  -0.000176  -0.186411   0.000646
    19  C   -0.003988   0.009805  -0.000175  -0.400154   0.000645  -0.186355
    20  C    0.006890   0.044707  -0.000281  -0.938155  -0.000893   0.688713
    21  H    0.055352  -0.005416  -0.116909   0.001778   0.310019   0.008681
    22  H   -0.005407   0.055357   0.001778  -0.116848   0.008675   0.310029
    23  H    0.025635  -0.023570  -0.010341  -0.000201   0.001314  -0.000390
    24  H   -0.023576   0.025652  -0.000201  -0.010348  -0.000391   0.001308
    25  H    0.046915   0.002134  -0.027728   0.000014   0.054274  -0.000065
    26  H    0.002134   0.046929   0.000014  -0.027736  -0.000065   0.054284
    27  H    0.006862   0.000338  -0.196302   0.000000   0.165956   0.000012
    28  H    0.006663   0.000352  -0.195139   0.000001   0.164927   0.000014
    29  H   -0.001885  -0.000029   0.050777  -0.000000  -0.054032  -0.000002
    30  H    0.002098  -0.000077  -0.112424   0.000000  -0.031317   0.000003
    31  H    0.001931  -0.000079  -0.112726   0.000000  -0.031939   0.000003
    32  H    0.000188   0.000015   0.023118  -0.000000   0.013543  -0.000001
    33  H   -0.000076   0.001952   0.000000  -0.111248   0.000003  -0.031391
    34  H   -0.000080   0.002081   0.000000  -0.113920   0.000003  -0.031893
    35  H    0.000015   0.000187  -0.000000   0.023100  -0.000001   0.013589
    36  H    0.000336   0.006768   0.000001  -0.195017   0.000015   0.164783
    37  H   -0.000029  -0.001883  -0.000000   0.050759  -0.000002  -0.053997
    38  H    0.000353   0.006765   0.000001  -0.196541   0.000011   0.166182
              13         14         15         16         17         18
     1  S    0.009140   0.009192  -0.039760  -0.039771   0.007053  -0.003716
     2  N   -0.001405  -0.000962   0.050086  -0.000245   0.261889   0.269636
     3  N   -0.000962  -0.001365  -0.000245   0.050177   0.000000   0.000001
     4  N   -0.153318  -0.153395   0.117002   0.117203  -0.000616  -0.000657
     5  C   -0.896833  -0.923470  -0.980566   0.344861   0.238019  -0.096219
     6  C   -0.923354  -0.897013   0.344786  -0.980453  -0.003518  -0.004109
     7  C   -1.809564   0.312725  -0.508851  -0.089920   0.044681   0.009827
     8  C    0.312533  -1.809353  -0.089824  -0.509376   0.006895  -0.003991
     9  C    0.449086  -0.043481   0.709475   0.024819  -0.938092  -0.400089
    10  C   -0.043340   0.449400   0.024797   0.708409  -0.000281  -0.000176
    11  C   -0.737957  -0.115018  -2.966922   0.024076   0.688634  -0.186411
    12  C   -0.115110  -0.738741   0.024120  -2.967871  -0.000896   0.000646
    13  C   11.055727   0.492933  -1.080161  -0.105390  -0.039411   0.161310
    14  C    0.492933  11.055897  -0.105417  -1.079974   0.002205  -0.001607
    15  C   -1.080161  -0.105417  10.299446  -0.056676  -0.256183   0.252549
    16  C   -0.105390  -1.079974  -0.056676  10.301879  -0.000135   0.000068
    17  C   -0.039411   0.002205  -0.256183  -0.000135   5.437734  -0.098741
    18  C    0.161310  -0.001607   0.252549   0.000068  -0.098741   5.436258
    19  C   -0.001606   0.161302   0.000068   0.252553  -0.000001   0.000000
    20  C    0.002204  -0.039466  -0.000135  -0.256268   0.000004  -0.000001
    21  H   -0.052498  -0.001259   0.069393  -0.000024   0.002592  -0.001046
    22  H   -0.001257  -0.052496  -0.000025   0.069398   0.000001   0.000001
    23  H    0.294842  -0.010729  -0.023192  -0.001416   0.000303   0.000707
    24  H   -0.010733   0.294869  -0.001415  -0.023219  -0.000000  -0.000000
    25  H    0.007428   0.000326   0.211300   0.000040  -0.001002  -0.007910
    26  H    0.000327   0.007447   0.000040   0.211252  -0.000000   0.000000
    27  H   -0.007454   0.000019  -0.042336  -0.000001   0.392909  -0.001477
    28  H   -0.007193   0.000020  -0.042496  -0.000001   0.393324  -0.001605
    29  H    0.004919  -0.000000   0.015812   0.000000   0.390157  -0.007263
    30  H    0.027059  -0.000010   0.094564  -0.000000   0.001270   0.396292
    31  H    0.027961  -0.000010   0.094745  -0.000000   0.001343   0.396004
    32  H   -0.002726   0.000001  -0.030170   0.000000  -0.010321   0.392829
    33  H   -0.000010   0.027514  -0.000000   0.093185  -0.000000   0.000000
    34  H   -0.000010   0.027467  -0.000000   0.096201  -0.000000   0.000000
    35  H    0.000001  -0.002722   0.000000  -0.030215   0.000000  -0.000000
    36  H    0.000019  -0.007394  -0.000001  -0.042207   0.000000  -0.000000
    37  H   -0.000000   0.004912   0.000000   0.015800  -0.000000  -0.000000
    38  H    0.000020  -0.007260  -0.000001  -0.042656   0.000000  -0.000000
              19         20         21         22         23         24
     1  S   -0.003718   0.007068   0.038389   0.038375  -0.001422  -0.001424
     2  N    0.000001   0.000000  -0.024779  -0.000000  -0.000182  -0.000000
     3  N    0.269653   0.261912  -0.000000  -0.024793  -0.000000  -0.000182
     4  N   -0.000657  -0.000616  -0.000281  -0.000281  -0.014457  -0.014466
     5  C   -0.004111  -0.003512  -0.005330   0.012749   0.053853   0.010665
     6  C   -0.096203   0.238065   0.012760  -0.005384   0.010667   0.053870
     7  C   -0.003988   0.006890   0.055352  -0.005407   0.025635  -0.023576
     8  C    0.009805   0.044707  -0.005416   0.055357  -0.023570   0.025652
     9  C   -0.000175  -0.000281  -0.116909   0.001778  -0.010341  -0.000201
    10  C   -0.400154  -0.938155   0.001778  -0.116848  -0.000201  -0.010348
    11  C    0.000645  -0.000893   0.310019   0.008675   0.001314  -0.000391
    12  C   -0.186355   0.688713   0.008681   0.310029  -0.000390   0.001308
    13  C   -0.001606   0.002204  -0.052498  -0.001257   0.294842  -0.010733
    14  C    0.161302  -0.039466  -0.001259  -0.052496  -0.010729   0.294869
    15  C    0.000068  -0.000135   0.069393  -0.000025  -0.023192  -0.001415
    16  C    0.252553  -0.256268  -0.000024   0.069398  -0.001416  -0.023219
    17  C   -0.000001   0.000004   0.002592   0.000001   0.000303  -0.000000
    18  C    0.000000  -0.000001  -0.001046   0.000001   0.000707  -0.000000
    19  C    5.436200  -0.098683   0.000001  -0.001046  -0.000000   0.000708
    20  C   -0.098683   5.437714   0.000001   0.002599  -0.000000   0.000303
    21  H    0.000001   0.000001   0.502523   0.000000   0.000011   0.000000
    22  H   -0.001046   0.002599   0.000000   0.502526   0.000000   0.000011
    23  H   -0.000000  -0.000000   0.000011   0.000000   0.463950   0.000012
    24  H    0.000708   0.000303   0.000000   0.000011   0.000012   0.463936
    25  H    0.000000  -0.000000  -0.000108  -0.000000  -0.003797  -0.000000
    26  H   -0.007920  -0.001000  -0.000000  -0.000108  -0.000000  -0.003797
    27  H   -0.000000   0.000000  -0.001546   0.000000   0.000000  -0.000000
    28  H   -0.000000   0.000000  -0.001548   0.000000   0.000000  -0.000000
    29  H   -0.000000  -0.000000   0.000323   0.000000  -0.000000  -0.000000
    30  H    0.000000  -0.000000  -0.000004   0.000000  -0.000000   0.000000
    31  H    0.000000  -0.000000  -0.000004   0.000000  -0.000000  -0.000000
    32  H   -0.000000   0.000000  -0.000000  -0.000000  -0.000000  -0.000000
    33  H    0.395784   0.001492   0.000000  -0.000004  -0.000000  -0.000000
    34  H    0.396532   0.001109   0.000000  -0.000004   0.000000  -0.000000
    35  H    0.392811  -0.010303  -0.000000  -0.000000  -0.000000  -0.000000
    36  H   -0.001345   0.392795   0.000000  -0.001540  -0.000000   0.000000
    37  H   -0.007255   0.390128   0.000000   0.000323  -0.000000  -0.000000
    38  H   -0.001745   0.393449   0.000000  -0.001555  -0.000000   0.000000
              25         26         27         28         29         30
     1  S    0.000542   0.000542   0.001525   0.001591  -0.000398   0.000147
     2  N   -0.023239  -0.000000  -0.033731  -0.034245  -0.042352  -0.036091
     3  N   -0.000000  -0.023230  -0.000000  -0.000000   0.000000   0.000000
     4  N    0.000324   0.000325  -0.000002  -0.000002   0.000001  -0.000006
     5  C    0.035882   0.000777   0.051672   0.051574  -0.011968  -0.003095
     6  C    0.000777   0.035884   0.000022   0.000034  -0.000029   0.000041
     7  C    0.046915   0.002134   0.006862   0.006663  -0.001885   0.002098
     8  C    0.002134   0.046929   0.000338   0.000352  -0.000029  -0.000077
     9  C   -0.027728   0.000014  -0.196302  -0.195139   0.050777  -0.112424
    10  C    0.000014  -0.027736   0.000000   0.000001  -0.000000   0.000000
    11  C    0.054274  -0.000065   0.165956   0.164927  -0.054032  -0.031317
    12  C   -0.000065   0.054284   0.000012   0.000014  -0.000002   0.000003
    13  C    0.007428   0.000327  -0.007454  -0.007193   0.004919   0.027059
    14  C    0.000326   0.007447   0.000019   0.000020  -0.000000  -0.000010
    15  C    0.211300   0.000040  -0.042336  -0.042496   0.015812   0.094564
    16  C    0.000040   0.211252  -0.000001  -0.000001   0.000000  -0.000000
    17  C   -0.001002  -0.000000   0.392909   0.393324   0.390157   0.001270
    18  C   -0.007910   0.000000  -0.001477  -0.001605  -0.007263   0.396292
    19  C    0.000000  -0.007920  -0.000000  -0.000000  -0.000000   0.000000
    20  C   -0.000000  -0.001000   0.000000   0.000000  -0.000000  -0.000000
    21  H   -0.000108  -0.000000  -0.001546  -0.001548   0.000323  -0.000004
    22  H   -0.000000  -0.000108   0.000000   0.000000   0.000000   0.000000
    23  H   -0.003797  -0.000000   0.000000   0.000000  -0.000000  -0.000000
    24  H   -0.000000  -0.003797  -0.000000  -0.000000  -0.000000   0.000000
    25  H    0.489191  -0.000000  -0.000003  -0.000003   0.000000  -0.001874
    26  H   -0.000000   0.489217  -0.000000  -0.000000  -0.000000   0.000000
    27  H   -0.000003  -0.000000   0.479716  -0.039923  -0.022351  -0.000221
    28  H   -0.000003  -0.000000  -0.039923   0.480307  -0.022273   0.000200
    29  H    0.000000  -0.000000  -0.022351  -0.022273   0.463433   0.000266
    30  H   -0.001874   0.000000  -0.000221   0.000200   0.000266   0.478262
    31  H   -0.001866   0.000000   0.000204  -0.000221   0.000260  -0.038478
    32  H    0.000354  -0.000000   0.000257   0.000258   0.004712  -0.022413
    33  H    0.000000  -0.001859  -0.000000   0.000000   0.000000   0.000000
    34  H    0.000000  -0.001880   0.000000  -0.000000   0.000000  -0.000000
    35  H   -0.000000   0.000354  -0.000000  -0.000000   0.000000   0.000000
    36  H   -0.000000  -0.000003  -0.000000   0.000000  -0.000000   0.000000
    37  H   -0.000000   0.000000  -0.000000  -0.000000   0.000000   0.000000
    38  H   -0.000000  -0.000003   0.000000  -0.000000  -0.000000  -0.000000
              31         32         33         34         35         36
     1  S    0.000137  -0.000168   0.000142   0.000142  -0.000168   0.001558
     2  N   -0.035787  -0.040223   0.000000   0.000000   0.000000  -0.000000
     3  N    0.000000   0.000000  -0.035880  -0.035997  -0.040198  -0.033827
     4  N   -0.000006   0.000001  -0.000006  -0.000006   0.000001  -0.000002
     5  C   -0.003070  -0.001652   0.000041   0.000042  -0.000027   0.000022
     6  C    0.000041  -0.000027  -0.003025  -0.003136  -0.001651   0.051402
     7  C    0.001931   0.000188  -0.000076  -0.000080   0.000015   0.000336
     8  C   -0.000079   0.000015   0.001952   0.002081   0.000187   0.006768
     9  C   -0.112726   0.023118   0.000000   0.000000  -0.000000   0.000001
    10  C    0.000000  -0.000000  -0.111248  -0.113920   0.023100  -0.195017
    11  C   -0.031939   0.013543   0.000003   0.000003  -0.000001   0.000015
    12  C    0.000003  -0.000001  -0.031391  -0.031893   0.013589   0.164783
    13  C    0.027961  -0.002726  -0.000010  -0.000010   0.000001   0.000019
    14  C   -0.000010   0.000001   0.027514   0.027467  -0.002722  -0.007394
    15  C    0.094745  -0.030170  -0.000000  -0.000000   0.000000  -0.000001
    16  C   -0.000000   0.000000   0.093185   0.096201  -0.030215  -0.042207
    17  C    0.001343  -0.010321  -0.000000  -0.000000   0.000000   0.000000
    18  C    0.396004   0.392829   0.000000   0.000000  -0.000000  -0.000000
    19  C    0.000000  -0.000000   0.395784   0.396532   0.392811  -0.001345
    20  C   -0.000000   0.000000   0.001492   0.001109  -0.010303   0.392795
    21  H   -0.000004  -0.000000   0.000000   0.000000  -0.000000   0.000000
    22  H    0.000000  -0.000000  -0.000004  -0.000004  -0.000000  -0.001540
    23  H   -0.000000  -0.000000  -0.000000   0.000000  -0.000000  -0.000000
    24  H   -0.000000  -0.000000  -0.000000  -0.000000  -0.000000   0.000000
    25  H   -0.001866   0.000354   0.000000   0.000000  -0.000000  -0.000000
    26  H    0.000000  -0.000000  -0.001859  -0.001880   0.000354  -0.000003
    27  H    0.000204   0.000257  -0.000000   0.000000  -0.000000  -0.000000
    28  H   -0.000221   0.000258   0.000000  -0.000000  -0.000000   0.000000
    29  H    0.000260   0.004712   0.000000   0.000000   0.000000  -0.000000
    30  H   -0.038478  -0.022413   0.000000  -0.000000   0.000000   0.000000
    31  H    0.477913  -0.022429  -0.000000   0.000000   0.000000  -0.000000
    32  H   -0.022429   0.464482   0.000000   0.000000   0.000000  -0.000000
    33  H   -0.000000   0.000000   0.478198  -0.038468  -0.022337   0.000193
    34  H    0.000000   0.000000  -0.038468   0.477943  -0.022508  -0.000222
    35  H    0.000000   0.000000  -0.022337  -0.022508   0.464466   0.000264
    36  H   -0.000000  -0.000000   0.000193  -0.000222   0.000264   0.480010
    37  H    0.000000   0.000000   0.000265   0.000260   0.004702  -0.022254
    38  H    0.000000  -0.000000  -0.000221   0.000212   0.000251  -0.039929
              37         38
     1  S   -0.000399   0.001565
     2  N    0.000000  -0.000000
     3  N   -0.042311  -0.034147
     4  N    0.000001  -0.000002
     5  C   -0.000029   0.000035
     6  C   -0.011967   0.051887
     7  C   -0.000029   0.000353
     8  C   -0.001883   0.006765
     9  C   -0.000000   0.000001
    10  C    0.050759  -0.196541
    11  C   -0.000002   0.000011
    12  C   -0.053997   0.166182
    13  C   -0.000000   0.000020
    14  C    0.004912  -0.007260
    15  C    0.000000  -0.000001
    16  C    0.015800  -0.042656
    17  C   -0.000000   0.000000
    18  C   -0.000000  -0.000000
    19  C   -0.007255  -0.001745
    20  C    0.390128   0.393449
    21  H    0.000000   0.000000
    22  H    0.000323  -0.001555
    23  H   -0.000000  -0.000000
    24  H   -0.000000   0.000000
    25  H   -0.000000  -0.000000
    26  H    0.000000  -0.000003
    27  H   -0.000000   0.000000
    28  H   -0.000000  -0.000000
    29  H    0.000000  -0.000000
    30  H    0.000000  -0.000000
    31  H    0.000000   0.000000
    32  H    0.000000  -0.000000
    33  H    0.000265  -0.000221
    34  H    0.000260   0.000212
    35  H    0.004702   0.000251
    36  H   -0.022254  -0.039929
    37  H    0.463374  -0.022366
    38  H   -0.022366   0.480021
 Mulliken charges:
               1
     1  S    0.245903
     2  N   -0.257932
     3  N   -0.257982
     4  N   -0.161215
     5  C    0.099930
     6  C    0.100006
     7  C    0.120830
     8  C    0.121042
     9  C    1.225172
    10  C    1.225135
    11  C   -0.881204
    12  C   -0.881363
    13  C   -0.855216
    14  C   -0.855091
    15  C   -0.083807
    16  C   -0.084104
    17  C   -0.519816
    18  C   -0.501110
    19  C   -0.501101
    20  C   -0.519840
    21  H    0.208929
    22  H    0.208926
    23  H    0.238402
    24  H    0.238418
    25  H    0.218095
    26  H    0.218075
    27  H    0.245855
    28  H    0.245385
    29  H    0.231923
    30  H    0.245810
    31  H    0.246072
    32  H    0.230372
    33  H    0.245756
    34  H    0.246135
    35  H    0.230391
    36  H    0.245577
    37  H    0.231969
    38  H    0.245675
 Sum of Mulliken charges =   1.00000
 Mulliken charges with hydrogens summed into heavy atoms:
               1
     1  S    0.245903
     2  N   -0.257932
     3  N   -0.257982
     4  N   -0.161215
     5  C    0.099930
     6  C    0.100006
     7  C    0.120830
     8  C    0.121042
     9  C    1.225172
    10  C    1.225135
    11  C   -0.672275
    12  C   -0.672437
    13  C   -0.616814
    14  C   -0.616673
    15  C    0.134288
    16  C    0.133971
    17  C    0.203346
    18  C    0.221145
    19  C    0.221180
    20  C    0.203380
 Electronic spatial extent (au):  <R**2>=           8808.9083
 Charge=              1.0000 electrons
 Dipole moment (field-independent basis, Debye):
    X=             -0.0012    Y=             -1.8918    Z=              0.0181  Tot=              1.8919
 Quadrupole moment (field-independent basis, Debye-Ang):
   XX=              6.8414   YY=           -105.4201   ZZ=           -128.1528
   XY=              0.0031   XZ=             -0.0139   YZ=             -0.0031
 Traceless Quadrupole moment (field-independent basis, Debye-Ang):
   XX=             82.4186   YY=            -29.8430   ZZ=            -52.5756
   XY=              0.0031   XZ=             -0.0139   YZ=             -0.0031
 Octapole moment (field-independent basis, Debye-Ang**2):
  XXX=             -0.0455  YYY=             -9.8572  ZZZ=              0.0600  XYY=             -0.0061
  XXY=            -51.5719  XXZ=              0.8162  XZZ=             -0.0012  YZZ=             -4.7812
  YYZ=              0.0122  XYZ=             -0.0162
 Hexadecapole moment (field-independent basis, Debye-Ang**3):
 XXXX=          -5731.1615 YYYY=          -1313.0883 ZZZZ=           -171.7432 XXXY=              0.0966
 XXXZ=             -0.0090 YYYX=              0.0284 YYYZ=              0.0485 ZZZX=             -0.1579
 ZZZY=              0.0120 XXYY=          -1582.0917 XXZZ=          -1797.6214 YYZZ=           -275.3094
 XXYZ=             -0.4270 YYXZ=              0.0988 ZZXY=             -0.0041
 N-N= 1.586641906371D+03 E-N=-5.916428607673D+03  KE= 1.173843731491D+03
 Calling FoFJK, ICntrl=      2127 FMM=F ISym2X=0 I1Cent= 0 IOpClX= 0 NMat=1 NMatS=1 NMatT=0.
 ***** Axes restored to original set *****
 -------------------------------------------------------------------
 Center     Atomic                   Forces (Hartrees/Bohr)
 Number     Number              X              Y              Z
 -------------------------------------------------------------------
      1       16          -0.000022737    0.000012599   -0.000015094
      2        7           0.000089248   -0.000086924   -0.000052733
      3        7          -0.000036180   -0.000106342   -0.000097806
      4        7          -0.000004253    0.000087700   -0.000004480
      5        6           0.000011063    0.000054238    0.000009575
      6        6          -0.000048633    0.000068449    0.000005860
      7        6          -0.000070769   -0.000099216    0.000024681
      8        6           0.000080426   -0.000045334    0.000012994
      9        6           0.000073691    0.000192459   -0.000000575
     10        6          -0.000149660    0.000197478    0.000000824
     11        6           0.000005755    0.000021886   -0.000025097
     12        6           0.000037080    0.000039150   -0.000021020
     13        6           0.000050687   -0.000001796    0.000024256
     14        6          -0.000077506   -0.000027803    0.000021880
     15        6          -0.000006226   -0.000049380   -0.000012126
     16        6           0.000088608   -0.000072699   -0.000009079
     17        6          -0.000029567    0.000062569    0.000002542
     18        6          -0.000177651    0.000026490   -0.000001757
     19        6           0.000170738    0.000010082    0.000021212
     20        6           0.000004517    0.000078557    0.000015259
     21        1          -0.000078384   -0.000021543    0.000017016
     22        1           0.000064281   -0.000019462    0.000012089
     23        1           0.000008932    0.000002301   -0.000015096
     24        1          -0.000000421    0.000003440   -0.000018488
     25        1          -0.000010630   -0.000023392    0.000011513
     26        1           0.000020893   -0.000015196    0.000010076
     27        1           0.000005114   -0.000030316   -0.000012651
     28        1          -0.000015112   -0.000072205    0.000005258
     29        1           0.000001211   -0.000024117    0.000013654
     30        1           0.000056061   -0.000010417    0.000030951
     31        1           0.000061430   -0.000007338   -0.000022811
     32        1           0.000004619   -0.000016028    0.000019265
     33        1          -0.000056962   -0.000005710   -0.000013192
     34        1          -0.000058632    0.000006332    0.000034871
     35        1          -0.000008026   -0.000023814    0.000006510
     36        1           0.000015357   -0.000051194    0.000001609
     37        1          -0.000007662    0.000013793    0.000012509
     38        1           0.000009300   -0.000067297    0.000007601
 -------------------------------------------------------------------
 Cartesian Forces:  Max     0.000197478 RMS     0.000054484

 GradGradGradGradGradGradGradGradGradGradGradGradGradGradGradGradGradGrad
 Berny optimization.
 FormGI is forming the generalized inverse of G from B-inverse, IUseBI=4.
 Internal  Forces:  Max     0.000129928 RMS     0.000036801
 Search for a local minimum.
 Step number   1 out of a maximum of  206
 All quantities printed in internal units (Hartrees-Bohrs-Radians)
 Mixed Optimization -- En-DIIS/RFO-DIIS
 Second derivative matrix not updated -- first step.
 ITU=  0
     Eigenvalues ---    0.00879   0.00879   0.00910   0.00911   0.01284
     Eigenvalues ---    0.01284   0.01445   0.01672   0.01734   0.01770
     Eigenvalues ---    0.01820   0.01866   0.01924   0.01953   0.02011
     Eigenvalues ---    0.02026   0.02069   0.02072   0.02140   0.02152
     Eigenvalues ---    0.02178   0.02190   0.02300   0.02310   0.02410
     Eigenvalues ---    0.02410   0.02431   0.07222   0.07223   0.07278
     Eigenvalues ---    0.07279   0.07568   0.07570   0.07576   0.07576
     Eigenvalues ---    0.16000   0.16000   0.16000   0.16000   0.16000
     Eigenvalues ---    0.16000   0.16000   0.16000   0.16000   0.16000
     Eigenvalues ---    0.16000   0.16000   0.16000   0.16000   0.16000
     Eigenvalues ---    0.16000   0.16000   0.16000   0.22398   0.22426
     Eigenvalues ---    0.23488   0.23504   0.24607   0.24624   0.24999
     Eigenvalues ---    0.25000   0.25000   0.25000   0.25000   0.25000
     Eigenvalues ---    0.25000   0.25000   0.25000   0.31201   0.31344
     Eigenvalues ---    0.34220   0.34221   0.34228   0.34229   0.34285
     Eigenvalues ---    0.34291   0.34292   0.34301   0.35032   0.35033
     Eigenvalues ---    0.35036   0.35038   0.35426   0.35427   0.35712
     Eigenvalues ---    0.35713   0.35826   0.35827   0.36075   0.36785
     Eigenvalues ---    0.36788   0.37079   0.37086   0.37714   0.39442
     Eigenvalues ---    0.39612   0.39712   0.40238   0.42288   0.42292
     Eigenvalues ---    0.47368   0.47410   0.52283   0.52298   0.55942
     Eigenvalues ---    0.55949   0.57691   0.59011
 RFO step:  Lambda=-2.15121119D-06 EMin= 8.79105348D-03
 Linear search not attempted -- first point.
 Iteration  1 RMS(Cart)=  0.00274921 RMS(Int)=  0.00000247
 Iteration  2 RMS(Cart)=  0.00000496 RMS(Int)=  0.00000017
 Iteration  3 RMS(Cart)=  0.00000000 RMS(Int)=  0.00000017
 Variable       Old X    -DE/DX   Delta X   Delta X   Delta X     New X
                                 (Linear)    (Quad)   (Total)
    R1        3.28393  -0.00004   0.00000  -0.00014  -0.00014   3.28379
    R2        3.28382  -0.00000   0.00000  -0.00002  -0.00002   3.28380
    R3        2.54304   0.00007   0.00000   0.00012   0.00012   2.54317
[...]
 3,-0.00042845,-0.00020269,0.00000842,-0.00842457,-0.01549488,0.0138635
 8,0.00143610,-0.00006587,-0.00006761,-0.00000480,0.00064028,-0.0000091
 7,0.00045926,-0.00047302,-0.00004308,-0.00094521,-0.00052686,0.0000380
 8,-0.00136279,0.00046491,-0.00004047,0.00035131,0.00030411,-0.00000864
 ,0.00360167,-0.00133218,0.00026441,-0.00019971,0.00002228,0.00000085,-
 0.00112731,-0.00033632,-0.00028574,0.00048070,-0.00015501,0.00001504,0
 .00113446,0.00005915,0.00012534,-0.00024925,-0.00033236,0.00001364,-0.
 00070158,0.00102847,-0.00031717,0.00001834,0.00012101,-0.00000387,0.00
 010915,-0.00007350,0.00000270,0.00206797,-0.12331766,0.11854631,-0.001
 83867,-0.00042156,0.00153344,-0.00000592,-0.00000884,0.00000111,0.0000
 5074,0.00002457,0.00008587,0.00000189,0.00000412,0.00000113,-0.0000000
 5,-0.00000141,-0.00000465,-0.00000928,-0.00000672,-0.00000074,0.001015
 33,0.00008509,-0.00059678,0.00001001,-0.00002281,0.00000663,0.00001045
 ,-0.00002311,-0.00000521,-0.00000943,-0.00000512,0.00000046,-0.0000054
 1,0.00002403,-0.00000698,-0.00000526,0.00002418,0.00000446,-0.00000985
 ,-0.00000495,0.00000055,0.00048936,0.01257284,-0.01740478,0.00504950,0
 .13722023,-0.00009113,0.00006608,0.00001038,0.00010927,0.00005636,-0.0
 0000333,0.00507190,-0.00065143,0.00797542,-0.00073986,0.00000173,0.000
 09018,0.00007358,-0.00028482,0.00001436,-0.00031025,0.00023028,-0.0000
 4125,0.00040916,0.00020563,-0.00005268,0.00067940,-0.00009189,-0.00001
 447,-0.00005956,-0.00014448,0.00000670,-0.00182955,0.00131192,0.000751
 19,-0.00001520,-0.00000092,0.00000620,0.00070070,-0.00004206,-0.000273
 48,-0.00020486,0.00006484,-0.00000957,-0.00096890,-0.00043113,-0.00011
 224,0.00010476,0.00013089,-0.00000337,0.00078016,0.00050355,0.00000337
 ,-0.00000626,-0.00002723,0.00000077,-0.00003186,0.00002137,-0.00000216
 ,-0.00197567,0.12022712,-0.24780768,-0.00023907,-0.00084876,-0.0010881
 9,0.00000149,0.00000336,-0.00000067,-0.00004885,-0.00005275,0.00001340
 ,0.00000414,-0.00000241,-0.00000112,0.00001542,0.00000243,-0.00000982,
 0.00000240,0.00000367,0.00000143,-0.00002377,-0.00070654,-0.00005875,-
 0.00000109,0.00000650,-0.00000176,-0.00000122,0.00000682,0.00000142,0.
 00000183,0.00000188,-0.00000019,0.00000013,-0.00000702,0.00000259,0.00
 000053,-0.00000686,-0.00000178,0.00000227,0.00000148,-0.00000023,-0.00
 161798,0.01423907,-0.02100660,0.00095960,-0.13235103,0.26021800,-0.000
 08777,0.00000352,0.00000011,-0.00017958,-0.00008065,0.00000440,-0.0287
 5357,0.01437229,-0.00058994,0.00053940,0.00002192,-0.00000298,0.000005
 71,0.00017103,-0.00000807,0.00010858,-0.00057441,0.00002674,-0.0003474
 7,-0.00019976,0.00001063,-0.00036814,0.00018218,-0.00000739,0.00015451
 ,0.00010938,-0.00000566,-0.00142557,-0.00457622,0.00021391,-0.00010603
 ,0.00003467,-0.00000126,-0.00125476,0.00089392,-0.00003550,0.00018086,
 -0.00005807,0.00000205,0.00031994,0.00022017,-0.00001107,-0.00010167,-
 0.00012045,0.00000598,0.00002107,-0.00053782,0.00002624,0.00000646,0.0
 0005222,-0.00000245,0.00004432,-0.00003196,0.00000132,-0.23640449,0.13
 015427,-0.00556335,-0.00029010,0.00326761,-0.00014667,0.00000053,-0.00
 000151,0.00000007,-0.00002722,-0.00005512,0.00000252,-0.00000015,0.000
 00199,-0.00000009,-0.00003680,0.00000571,-0.00000009,-0.00000382,-0.00
 000224,0.00000012,0.00015037,0.00012799,-0.00000756,0.00000499,-0.0000
 0895,0.00000234,0.00000497,-0.00000913,-0.00000153,-0.00000472,-0.0000
 0168,0.00000010,-0.00000218,0.00000990,-0.00000228,-0.00000217,0.00001
 006,0.00000137,-0.00000478,-0.00000213,0.00000012,0.00252414,-0.000357
 56,0.00083746,0.00237951,-0.00033839,-0.00080689,0.26074690,-0.0000702
 0,-0.00003756,0.00000138,0.00009974,0.00004251,-0.00000235,-0.02348296
 ,0.01033714,-0.00051203,0.00001687,0.00006325,-0.00000385,-0.00008912,
 -0.00007262,0.00000304,0.00004645,-0.00027306,0.00001351,0.00005288,0.
 00004927,-0.00000169,0.00007862,-0.00006988,0.00000043,-0.00011585,-0.
 00000268,0.00000064,-0.00230999,-0.00374708,0.00017844,0.00011015,0.00
 000652,-0.00000101,-0.00134220,0.00071729,-0.00000825,-0.00003061,0.00
 001317,-0.00000059,0.00007155,0.00043964,-0.00001454,0.00001097,0.0000
 3412,-0.00000168,0.00000548,-0.00113614,0.00007118,-0.00000396,-0.0000
 2944,0.00000145,-0.00002383,0.00001399,-0.00000053,0.14557141,-0.15088
 091,0.00426994,-0.00340074,-0.00018297,0.00005359,0.00000309,0.0000015
 9,-0.00000007,0.00002324,0.00005923,-0.00000305,-0.00000537,0.00000136
 ,-0.00000001,-0.00002342,0.00001259,0.00000020,0.00000213,-0.00000004,
 0.00000002,0.00052800,0.00061413,-0.00004793,-0.00000358,0.00000443,-0
 .00000168,-0.00000355,0.00000456,0.00000127,0.00000234,0.00000070,-0.0
 0000003,0.00000249,-0.00000473,0.00000142,0.00000247,-0.00000487,-0.00
 000101,0.00000202,0.00000119,-0.00000005,0.01488917,-0.00993222,0.0023
 6155,0.01269617,-0.00861552,-0.00137808,-0.14119749,0.16435977,0.00000
 339,0.00000094,-0.00001257,-0.00000405,-0.00000174,-0.00000039,0.00118
 413,-0.00062677,-0.00202900,-0.00000250,-0.00000373,-0.00001680,0.0000
 0404,0.00000221,-0.00001388,-0.00000188,0.00001491,0.00001166,-0.00000
 133,-0.00000090,0.00001616,-0.00000250,0.00000037,-0.00005296,0.000004
 87,-0.00000006,0.00000248,0.00011470,0.00018692,-0.00005811,-0.0000047
 3,-0.00000071,-0.00000625,0.00006758,-0.00001699,0.00041784,0.00000087
 ,-0.00000051,-0.00000161,-0.00000423,-0.00001483,0.00013273,-0.0000002
 2,-0.00000126,-0.00000101,0.00000241,0.00007176,0.00037626,0.00000017,
 0.00000126,0.00000130,0.00000097,-0.00000052,0.00000061,-0.00628663,0.
 00431756,-0.05092939,0.00016069,0.00003376,0.00076233,-0.00000014,-0.0
 0000006,0.00000029,-0.00000104,-0.00000261,0.00000025,0.00000025,-0.00
 000004,0.00000063,0.00000126,0.00000004,0.00001382,-0.00000008,0.00000
 003,0.00000054,-0.00002583,-0.00004591,-0.00036297,-0.00000002,-0.0000
 0009,-0.00000019,0.00000032,-0.00000029,-0.00000031,-0.00000009,-0.000
 00002,0.00000022,-0.00000008,0.00000047,-0.00000021,-0.00000014,-0.000
 00010,-0.00000009,-0.00000008,-0.00000004,0.00000025,0.02259894,-0.015
 33974,0.00262171,-0.02389732,0.01640963,0.00144496,0.00599423,-0.00510
 470,0.04692413,0.00019944,0.00030868,-0.00004727,0.00014977,0.00006612
 ,-0.00000417,0.00257872,0.00229942,-0.00590031,-0.00059157,-0.00007931
 ,-0.00000356,-0.00007118,-0.00018377,-0.00000227,-0.00129073,0.0006839
 6,0.00039041,0.00037289,0.00017494,-0.00006264,0.00034378,-0.00069153,
 -0.00005603,-0.00013179,-0.00013872,0.00000678,0.00089144,0.00033039,-
 0.00102909,0.00004677,-0.00003331,0.00000678,0.00100114,-0.00083771,-0
 .00002530,-0.00017992,0.00005808,0.00003087,0.00051148,0.00010492,0.00
 006044,0.00012359,0.00009685,-0.00001001,-0.00035559,0.00017660,0.0005
 2061,-0.00000601,-0.00004111,0.00000285,-0.00004262,0.00003225,-0.0000
 0074,-0.00052991,-0.00035788,-0.00024804,-0.09666723,-0.03807255,0.092
 84007,-0.00000827,0.00000055,0.00000079,-0.00164995,0.00092562,-0.0015
 4663,0.00000535,-0.00000516,0.00000324,0.00000437,-0.00001798,-0.00004
 894,0.00000330,0.00000294,-0.00000223,-0.00000271,0.00001636,-0.000041
 95,-0.00000511,0.00000761,0.00000068,-0.00000439,0.00000782,-0.0000012
 8,0.00000601,0.00000055,0.00000020,0.00000067,-0.00000954,0.00000096,0
 .00000009,-0.00001010,-0.00000016,0.00000475,0.00000357,-0.00000002,0.
 00002941,-0.00018717,0.00003320,0.00021420,-0.00027649,0.00002345,0.00
 042806,-0.00014607,0.00019235,0.09879725,-0.00010036,0.00013117,0.0000
 3530,0.00040361,0.00020010,-0.00001049,-0.01069165,-0.02749829,0.02634
 671,-0.00152854,0.00008697,0.00001626,0.00009036,-0.00069704,0.0000020
 3,-0.00031285,0.00059438,-0.00022056,0.00101143,0.00055387,0.00001466,
 0.00144715,-0.00038810,0.00002360,-0.00030484,-0.00034441,0.00000665,-
 0.00639640,0.00202360,0.00123788,0.00013381,-0.00000779,0.00000089,0.0
 0143937,0.00094371,-0.00045518,-0.00051385,0.00016717,-0.00002598,-0.0
 0133015,0.00004003,-0.00014234,0.00026837,0.00035650,-0.00001091,0.001
 02615,-0.00163846,-0.00098630,-0.00001727,-0.00011461,0.00000385,-0.00
 010283,0.00006968,0.00000005,0.00194860,-0.00187822,0.00269536,-0.0357
 6960,-0.07985034,0.07519904,0.00000890,0.00000992,0.00000187,0.0008093
 4,0.00013233,0.00068133,-0.00000273,-0.00000373,-0.00000136,0.00000227
 ,0.00000344,0.00012527,0.00000892,0.00000763,0.00000040,-0.00004755,0.
 00007055,0.00014070,-0.00000815,0.00002276,-0.00000730,-0.00000837,0.0
 0002226,0.00000541,0.00000797,0.00000569,-0.00000038,0.00000423,-0.000
 02290,0.00000648,0.00000385,-0.00002317,-0.00000456,0.00000896,0.00000
 465,-0.00000016,-0.00003119,-0.00017800,0.00012608,-0.00102814,-0.0009
 8236,0.00007776,-0.00009993,-0.00007426,-0.00018762,0.04166099,0.09830
 844,-0.00003613,-0.00015689,0.00000162,-0.00011014,-0.00007503,0.00000
 522,-0.00413022,0.00421225,0.00727011,0.00080013,-0.00015207,-0.000002
 62,-0.00017340,0.00036926,0.00001956,0.00047601,-0.00105215,-0.0001179
 1,-0.00049750,-0.00025937,0.00002334,-0.00058199,0.00042477,0.00000360
 ,0.00003801,0.00021492,-0.00000901,0.00259446,-0.00042306,0.00079658,0
 .00007505,-0.00001950,-0.00000931,-0.00043114,0.00084736,-0.00018756,0
 .00024496,-0.00009270,-0.00000504,0.00044857,-0.00009361,-0.00001726,-
 0.00013756,-0.00017142,0.00001066,-0.00047939,0.00053333,-0.00023193,0
 .00000583,0.00003526,-0.00000381,0.00003002,-0.00001980,0.00000066,-0.
 00045392,-0.00074923,-0.00121146,0.09214208,0.07817880,-0.24263656,-0.
 00000844,-0.00000476,-0.00000288,-0.00059044,-0.00042073,-0.00009539,0
 .00000119,0.00000221,-0.00000202,-0.00000325,0.00000226,0.00001613,-0.
 00000232,-0.00000559,0.00000041,0.00000170,-0.00006975,0.00000859,-0.0
 0000047,-0.00000737,0.00000458,-0.00000040,-0.00000782,-0.00000350,-0.
 00000126,-0.00000298,-0.00000004,0.00000135,0.00000673,-0.00000177,0.0
 0000110,0.00000752,0.00000136,-0.00000235,-0.00000175,-0.00000017,-0.0
 0006225,-0.00010003,0.00001097,0.00008120,0.00008616,-0.00002153,-0.00
 003884,0.00001629,-0.00003577,-0.10044499,-0.08771535,0.25532019,-0.00
 004007,-0.00003581,0.00000175,-0.00017472,-0.00007252,0.00000400,-0.00
 383413,0.00042085,-0.00001512,0.00034916,0.00007249,-0.00000469,0.0000
 9505,0.00011592,-0.00000570,0.00040245,-0.00000876,-0.00000044,-0.0002
 3716,-0.00014138,0.00000741,-0.00027370,0.00019922,-0.00000843,0.00017
 509,0.00006582,-0.00000370,0.00074760,-0.00004894,-0.00000035,-0.00013
 974,0.00003341,-0.00000104,-0.00036351,-0.00022602,0.00001322,0.000130
 92,-0.00003788,0.00000132,0.00005757,0.00013152,-0.00000627,-0.0000752
 3,-0.00008267,0.00000413,0.00002508,-0.00022872,0.00001253,0.00000605,
 0.00005020,-0.00000235,0.00004299,-0.00003072,0.00000127,-0.00021691,-
 0.00326867,0.00015318,-0.33005989,0.05581137,-0.00160221,0.00000345,-0
 .00000091,0.00000003,0.00008015,0.00040339,-0.00002059,0.00000009,0.00
 000152,-0.00000007,-0.00002003,-0.00000337,-0.00000001,-0.00000363,-0.
 00000102,0.00000006,0.00002724,0.00008447,-0.00000403,0.00000617,-0.00
 000797,0.00000126,0.00000616,-0.00000804,-0.00000056,-0.00000554,-0.00
 000078,0.00000006,-0.00000280,0.00000947,-0.00000185,-0.00000278,0.000
 00959,0.00000098,-0.00000470,-0.00000244,0.00000013,0.00029964,-0.0002
 7834,-0.00002296,0.00029793,-0.00027403,0.00004739,0.00135284,-0.00180
 358,0.00008215,-0.01024065,0.00139905,-0.00075882,0.35202102,0.0000204
 9,0.00000635,-0.00000102,0.00008776,0.00005084,-0.00000270,0.03840349,
 -0.01416891,0.00042506,-0.00040723,0.00011880,-0.00000481,0.00009422,-
 0.00020896,0.00001023,0.00012600,0.00059770,-0.00002111,0.00028026,0.0
 0016107,-0.00000905,0.00021874,-0.00013891,0.00000427,-0.00004818,-0.0
 0010722,0.00000527,-0.00261489,-0.00620233,0.00029764,0.00000053,0.000
 01124,-0.00000066,-0.00075943,-0.00062601,0.00005127,-0.00014052,0.000
 05262,-0.00000144,-0.00049784,-0.00055017,0.00002765,0.00007155,0.0001
 0425,-0.00000533,0.00205590,-0.00034770,0.00003181,-0.00000370,-0.0000
 2587,0.00000124,-0.00002176,0.00001443,-0.00000057,0.00336075,-0.00028
 154,0.00003459,0.04043090,-0.05769666,0.00018499,0.00000698,0.00000356
 ,-0.00000018,0.00006276,0.00064572,-0.00005058,-0.00000271,-0.00000041
 ,0.00000005,0.00012774,-0.00002468,-0.00000222,0.00000220,0.00000280,-
 0.00000012,-0.00001585,-0.00000454,0.00000078,-0.00000056,0.00000554,-
 0.00000295,-0.00000052,0.00000579,0.00000241,0.00000064,0.00000223,-0.
 00000009,0.00000048,-0.00000494,0.00000185,0.00000046,-0.00000511,-0.0
 0000139,0.00000159,0.00000069,-0.00000003,-0.00021415,0.00006102,0.000
 01972,-0.00023863,0.00005946,-0.00002772,-0.00129107,-0.00165406,0.000
 11919,-0.01139772,0.00313083,-0.00188044,-0.05375391,0.07317686,-0.000
 00089,-0.00000088,-0.00001479,-0.00000347,-0.00000213,-0.00000023,-0.0
 0178368,0.00055979,-0.00213664,0.00001769,-0.00000649,-0.00001511,-0.0
 0000465,0.00001017,0.00001796,-0.00000658,-0.00002060,0.00015592,-0.00
 001226,-0.00000756,-0.00001149,-0.00000935,0.00000440,-0.00003111,0.00
 000164,0.00000486,0.00000172,0.00011878,0.00028978,0.00000098,0.000000
 46,-0.00000076,-0.00000272,0.00003774,0.00004963,0.00041518,0.00000612
 ,-0.00000180,0.00001109,0.00002286,0.00002523,0.00000038,-0.00000309,-
 0.00000477,-0.00000416,-0.00009406,0.00003948,0.00048196,0.00000015,0.
 00000105,0.00000044,0.00000086,-0.00000055,0.00000042,-0.00015264,0.00
 005520,0.00068202,-0.00088599,0.00013109,-0.05063859,-0.00000034,-0.00
 000015,0.00000022,-0.00000469,-0.00005176,-0.00043438,0.00000013,0.000
 00004,0.00000054,-0.00000611,-0.00000168,-0.00006109,-0.00000009,-0.00
 000011,0.00000027,0.00000068,0.00000041,0.00001132,-0.00000024,-0.0000
 0032,-0.00000005,0.00000025,-0.00000017,-0.00000030,0.,-0.00000009,0.0
 0000034,0.00000001,0.00000039,-0.00000018,-0.00000004,0.,-0.00000002,-
 0.00000006,-0.00000001,0.00000022,0.00027276,-0.00001859,-0.00004296,-
 0.00025439,0.00001125,-0.00004087,0.00005760,0.00012126,0.00084418,0.0
 2812362,-0.00577879,0.00228578,0.00141741,-0.00104017,0.04675334,0.000
 19993,0.00031262,0.00001710,0.00015026,0.00006656,-0.00000307,0.002648
 83,0.00282312,0.00570240,-0.00059591,-0.00007741,0.00001500,-0.0000699
 6,-0.00018477,0.00002016,-0.00129658,0.00065188,-0.00044495,0.00037599
 ,0.00018130,0.00004346,0.00034736,-0.00068596,0.00011799,-0.00013186,-
 0.00013993,0.00000722,0.00088323,0.00042671,0.00099380,0.00004615,-0.0
 0003368,-0.00000414,0.00100285,-0.00083774,0.00009528,-0.00018148,0.00
 005553,-0.00003492,0.00050867,0.00009922,-0.00007375,0.00012438,0.0000
 9825,-0.00000001,-0.00035640,0.00012441,-0.00053355,-0.00000605,-0.000
 04137,0.00000100,-0.00004276,0.00003228,-0.00000194,-0.00052529,-0.000
 32851,0.00027347,-0.09795544,-0.04718390,-0.08984480,-0.00000822,0.000
 00051,-0.00000080,-0.00163601,0.00106912,0.00146471,0.00000532,-0.0000
 0546,-0.00000280,0.00000477,-0.00001336,0.00005046,0.00000332,0.000003
 17,0.00000192,-0.00000240,0.00002076,0.00004031,-0.00000438,0.00000795
 ,0.00000055,-0.00000510,0.00000755,-0.00000132,0.00000601,0.00000054,-
 0.00000030,0.00000010,-0.00001008,0.00000111,0.00000064,-0.00000962,-0
 .00000008,0.00000476,0.00000356,-0.00000036,0.00021431,-0.00027873,0.0
 0000149,0.00002954,-0.00018876,-0.00001561,0.00042784,-0.00016271,-0.0
 0018044,0.00606516,0.00661106,0.01200355,-0.01043146,-0.01394475,-0.02
 685616,0.10019987,-0.00009689,0.00014116,-0.00004748,0.00041185,0.0002
 0607,-0.00001120,-0.01043865,-0.03001930,-0.02279561,-0.00159559,0.000
 09932,-0.00001434,0.00010636,-0.00072492,0.00006668,-0.00035372,0.0007
 0566,0.00014622,0.00105244,0.00057128,-0.00007338,0.00149431,-0.000426
 22,0.00000583,-0.00030676,-0.00036173,0.00002855,-0.00661688,0.0019392
 4,-0.00129896,0.00012612,-0.00000609,-0.00000218,0.00147502,0.00089717
 ,0.00034384,-0.00053398,0.00017675,0.00001284,-0.00136492,0.00006195,0
 .00014450,0.00027979,0.00037011,-0.00002475,0.00107287,-0.00158422,0.0
 0110495,-0.00001771,-0.00011720,0.00000683,-0.00010513,0.00007091,-0.0
 0000580,0.00196444,-0.00205562,-0.00263200,-0.04480154,-0.09541611,-0.
 08859184,0.00000963,0.00001007,-0.00000314,0.00085643,0.00010565,-0.00
 070663,-0.00000282,-0.00000379,0.00000153,0.00000164,-0.00000824,-0.00
 012290,0.00000908,0.00000804,-0.00000118,-0.00004855,0.00006338,-0.000
 14542,-0.00000835,0.00002226,-0.00000775,-0.00000801,0.00002394,0.0000
 0554,0.00000805,0.00000594,-0.00000024,0.00000379,-0.00002322,0.000006
 81,0.00000403,-0.00002392,-0.00000446,0.00000913,0.00000478,-0.0000003
 7,-0.00103194,-0.00098989,0.00002003,-0.00002595,-0.00017847,-0.000107
 59,-0.00009432,-0.00005844,0.00019019,0.00552792,0.00681598,0.00854430
 ,0.00150819,0.00383622,0.00563337,0.05153063,0.11586148,0.00004387,0.0
 0014166,-0.00000878,0.00007115,0.00005579,-0.00000151,0.00515491,-0.00
 075212,0.00971956,-0.00065063,0.00014339,-0.00000987,0.00016501,-0.000
 29859,0.00004634,-0.00043712,0.00097093,-0.00022343,0.00039891,0.00020
 683,0.00000213,0.00044282,-0.00038000,0.00003772,-0.00000861,-0.000181
 02,0.00000864,-0.00198892,0.00031421,0.00088981,-0.00008754,0.00001947
 ,-0.00001038,0.00028705,-0.00094261,-0.00014405,-0.00019501,0.00007543
 ,-0.00001289,-0.00032698,0.00008565,-0.00003581,0.00011120,0.00013716,
 -0.00000406,0.00038253,-0.00040823,-0.00028489,-0.00000418,-0.00002438
 ,-0.00000113,-0.00002005,0.00001303,-0.00000040,0.00026900,0.00083058,
 -0.00104055,-0.08936642,-0.09156018,-0.22579214,0.00000761,0.00000355,
 -0.00000308,0.00052414,0.00039427,-0.00008301,-0.00000099,-0.00000201,
 -0.00000193,0.00000319,0.00000011,0.00002745,0.00000146,0.00000486,-0.
 00000003,0.00000289,0.00006449,0.00001542,0.00000119,0.00000537,-0.000
 00352,0.00000129,0.00000551,0.00000337,0.00000047,0.00000242,-0.000000
 30,-0.00000144,-0.00000516,0.00000142,-0.00000175,-0.00000459,-0.00000
 072,0.00000147,0.00000126,-0.00000032,0.00001324,0.00000669,-0.0000147
 0,0.00006471,0.00011923,0.00001137,0.00004430,-0.00001248,-0.00005085,
 -0.01276169,-0.01120033,-0.02118381,0.00071093,0.00183458,0.00177039,0
 .09714802,0.10033522,0.23637853\\0.00000246,-0.00000131,-0.00000556,0.
 00000416,-0.00001366,-0.00001047,-0.00000213,-0.00001534,-0.00000808,-
 0.00000232,0.00000256,0.00000116,-0.00000234,-0.00000887,0.00000575,0.
 00000276,-0.00000897,0.00000533,-0.00000089,0.00000440,-0.00000416,0.0
 0000552,0.00000077,-0.00000289,-0.00000967,-0.00000156,0.00000159,0.00
 001046,0.00000023,0.00000183,0.00000991,-0.00000143,0.00000415,-0.0000
 1106,-0.00000345,0.00000372,0.00000040,0.00000021,-0.00000056,-0.00000
 252,0.00000123,-0.00000037,-0.00000615,-0.00000101,0.00000317,0.000002
 56,-0.00000069,0.00000214,0.00000012,0.00000861,0.00000547,0.00000016,
 0.00000816,0.00000711,-0.00000178,0.00000811,0.00000679,0.00000054,0.0
 0001027,0.00000358,0.00000311,0.00000213,-0.00000307,-0.00000223,0.000
 00218,-0.00000265,0.00000037,-0.00000047,0.00000120,-0.00000040,-0.000
 00041,0.00000131,0.00000148,0.00000228,-0.00000383,-0.00000328,0.00000
 193,-0.00000339,0.00000099,-0.00000003,0.00000063,0.00000030,0.0000034
 4,-0.00000143,0.00000043,0.00000023,-0.00000060,-0.00000285,-0.0000013
 5,-0.00000271,-0.00000223,0.00000039,0.00000040,0.00000164,0.00000069,
 -0.00000086,0.00000208,0.00000045,0.00000021,0.00000343,-0.00000234,-0
 .00000270,-0.00000126,0.00000079,-0.00000104,-0.00000208,0.00000096,0.
 00000071,0.00000059,-0.00000234,-0.00000101,-0.00000029,0.00000321,-0.
 00000085\\\@
 The archive entry for this job was punched.


 THESE ARE THE TIMES THAT TRY MENS SOULS.
 THE SUMMER SOLDIER AND THE SUNSHINE PATRIOT WILL IN THIS CRISIS,
 SHRINK FROM THE SERVICE OF HIS COUNTRY.  BUT HE THAT STANDS NOW,
 DESERVES THE LOVE AND THANKS OF MAN AND WOMAN.
 TYRANNY, LIKE HELL, IS NOT EASILY CONQUERED,
 YET WE HAVE THIS CONSOLATION WITH US,
 THAT THE HARDER THE CONFLICT, THE MORE GLORIOUS THE TRIUMPH.
 WHAT WE OBTAIN TOO CHEAP, WE ESTEEM TOO LIGHTLY, 
 'TIS DEARNESS ONLY THAT GIVES EVERYTHING ITS VALUE.

                                              -- TOM PAINE
 Job cpu time:       0 days  5 hours 38 minutes  1.0 seconds.
 Elapsed time:       0 days  0 hours 21 minutes  8.8 seconds.
 File lengths (MBytes):  RWF=    707 Int=      0 D2E=      0 Chk=     17 Scr=      1
 Normal termination of Gaussian DV at Thu Feb 21 18:47:21 2019.
