************************************************************
This is node07.cluster of cluster Pinconning.
Date: Sat Feb 15 08:41:57 PST 2020
************************************************************
 Set GAUSS_MDEF to "32GB".
 Set GAUSS_PDEF to "12".
 Entering Gaussian System, Link 0=gdv
 Initial command:
 /opt/gaussian/gdv-20170407-i10+/gdv/local/l1.exe "/tmp/709792.1.allnodes.q/Gau-24506.inp" -scrdir="/tmp/709792.1.allnodes.q/"
 Default is to use a total of  12 processors:
                               12 via shared-memory
                                1 via Linda
 Entering Link 1 = /opt/gaussian/gdv-20170407-i10+/gdv/local/l1.exe PID=     24507.
  
 Copyright (c) 1988-2017, Gaussian, Inc.  All Rights Reserved.
  
 This is the private, development version of
 the Gaussian(R) DV system of programs. It is based on
 the Gaussian(R) 16 system (copyright 2016, Gaussian, Inc.),
 the Gaussian(R) 09 system (copyright 2009, Gaussian, Inc.),
 the Gaussian(R) 03 system (copyright 2003, Gaussian, Inc.),
 the Gaussian(R) 98 system (copyright 1998, Gaussian, Inc.),
 the Gaussian(R) 94 system (copyright 1995, Gaussian, Inc.),
 the Gaussian 92(TM) system (copyright 1992, Gaussian, Inc.),
 the Gaussian 90(TM) system (copyright 1990, Gaussian, Inc.),
 the Gaussian 88(TM) system (copyright 1988, Gaussian, Inc.),
 the Gaussian 86(TM) system (copyright 1986, Carnegie Mellon
 University), and the Gaussian 82(TM) system (copyright 1983,
 Carnegie Mellon University). Gaussian is a federally registered
 trademark of Gaussian, Inc.
  
 This software contains proprietary and confidential information,
 including trade secrets, belonging to Gaussian, Inc.
  
 This software is provided under written license and may be
 used, copied, transmitted, or stored only in accord with that
 written license.
  
 The following legend is applicable only to US Government
 contracts under FAR:
  
                    RESTRICTED RIGHTS LEGEND
  
 Use, reproduction and disclosure by the US Government is
 subject to restrictions as set forth in subparagraphs (a)
 and (c) of the Commercial Computer Software - Restricted
 Rights clause in FAR 52.227-19.
  
 Gaussian, Inc.
 340 Quinnipiac St., Bldg. 40, Wallingford CT 06492
  
  
 ---------------------------------------------------------------
 Warning -- This program may not be used in any manner that
 competes with the business of Gaussian, Inc. or will provide
 assistance to any competitor of Gaussian, Inc.  The licensee
 of this program is prohibited from giving any competitor of
 Gaussian, Inc. access to this program.  By using this program,
 the user acknowledges that Gaussian, Inc. is engaged in the
 business of creating and licensing software in the field of
 computational chemistry and represents and warrants to the
 licensee that it is not a competitor of Gaussian, Inc. and that
 it will not use this program in any manner prohibited above.
 ---------------------------------------------------------------
  

 Cite this work as:
 Gaussian Development Version, Revision I.10+,
 M. J. Frisch, G. W. Trucks, H. B. Schlegel, G. E. Scuseria, 
 M. A. Robb, J. R. Cheeseman, G. Scalmani, V. Barone, 
 G. A. Petersson, H. Nakatsuji, X. Li, M. Caricato, A. V. Marenich, 
 J. Bloino, B. G. Janesko, R. Gomperts, B. Mennucci, H. P. Hratchian, 
 J. V. Ortiz, A. F. Izmaylov, J. L. Sonnenberg, D. Williams-Young, 
 F. Ding, F. Lipparini, F. Egidi, J. Goings, B. Peng, A. Petrone, 
 T. Henderson, D. Ranasinghe, V. G. Zakrzewski, J. Gao, N. Rega, 
 G. Zheng, W. Liang, M. Hada, M. Ehara, K. Toyota, R. Fukuda, 
 J. Hasegawa, M. Ishida, T. Nakajima, Y. Honda, O. Kitao, H. Nakai, 
 T. Vreven, K. Throssell, J. A. Montgomery, Jr., J. E. Peralta, 
 F. Ogliaro, M. J. Bearpark, J. J. Heyd, E. N. Brothers, K. N. Kudin, 
 V. N. Staroverov, T. A. Keith, R. Kobayashi, J. Normand, 
 K. Raghavachari, A. P. Rendell, J. C. Burant, S. S. Iyengar, 
 J. Tomasi, M. Cossi, J. M. Millam, M. Klene, C. Adamo, R. Cammi, 
 J. W. Ochterski, R. L. Martin, K. Morokuma, O. Farkas, 
 J. B. Foresman, and D. J. Fox, Gaussian, Inc., Wallingford CT, 2016.
 
 *******************************************
 Gaussian DV:  ES64L-GDVRevI.10+ 27-Mar-2017
                 15-Feb-2020 
 *******************************************
 %chk=nile_red_gs
 ----------------------------------------------------------------------
 # CAM-B3LYP/6-31+G* Geom=Check guess=read freq=(readfc,FC,readFCHT) no
 symm
 ----------------------------------------------------------------------
 1/29=2,38=1,172=1/1;
 2/12=2,15=1,40=1/2;
 7/8=1,25=11,30=1,71=10,121=1/16,18;
 99/5=5/99;
 --------------------------
 pCT- Geometry Optimization
 --------------------------
 Structure from the checkpoint file:  "nile_red_gs.chk"
 Charge = -1 Multiplicity = 1
 Redundant internal coordinates found in file.  (old form).
 O,0,1.3692962653,-0.0921861669,0.0750371316
 O,0,2.7128038171,-4.5664569412,0.1447419863
 N,0,0.0965978717,4.5045320557,0.0030252831
 N,0,-1.2963220399,-0.9078107212,-0.0911979585
 C,0,-0.2399328695,3.178534047,-0.0214211291
 C,0,0.3756950425,0.843468734,0.0186608329
 C,0,-0.3514128652,-1.7906253032,-0.0346811909
 C,0,-0.9576524788,0.424787487,-0.0683577102
 C,0,-0.8933296145,5.5585892255,-0.1898751652
 C,0,1.4708121503,4.9446358948,0.2147460177
 C,0,0.7474004599,2.1720637,0.0393385647
 C,0,-0.6627991056,-3.2264548069,-0.0557264161
 C,0,1.0599052026,-1.4147709574,0.0517695292
 C,0,-1.5992915074,2.7618237947,-0.1063279479
 C,0,0.3751588374,-4.1703169748,0.0055978854
 C,0,-1.9359512054,1.42784715,-0.1306947317
 C,0,2.0660278509,-2.3135007458,0.1101216422
 C,0,1.8003199135,-3.7402149013,0.0913914478
 C,0,-1.5724775474,6.0048819731,1.1035533079
 C,0,2.2864485832,5.0453815809,-1.0731176543
 C,0,-1.9887718192,-3.6680138534,-0.1364831599
 C,0,0.0759336677,-5.534719048,-0.0137001373
 C,0,-2.2734275023,-5.0238671228,-0.1551156121
 C,0,-1.2395078458,-5.9627972081,-0.0935451492
 H,0,-0.3751546159,6.4075121146,-0.646511557
 H,0,-1.6339095327,5.2330157611,-0.9252780787
 H,0,1.4259501976,5.9242173222,0.7006856466
 H,0,1.9580432488,4.2786773615,0.9323757974
 H,0,1.8037686407,2.3999180819,0.0808670112
 H,0,-2.3935947293,3.4953088518,-0.133551542
 H,0,-2.9763134864,1.1237375591,-0.1904390876
 H,0,3.0981289275,-1.9875101787,0.1735358936
 H,0,-0.835151597,6.3784564364,1.8214257738
 H,0,-2.1120461706,5.1790863758,1.5763071278
 H,0,-2.286381248,6.8101402452,0.9003303196
 H,0,2.3589130864,4.077469673,-1.5773895355
 H,0,1.8263896739,5.7535351523,-1.7699008629
 H,0,3.3009175329,5.3950011365,-0.8544674538
 H,0,-2.7834457748,-2.9322574363,-0.1838933228
 H,0,0.8971221846,-6.241644102,0.0354554024
 H,0,-3.3054102973,-5.3561058278,-0.21789841
 H,0,-1.4663621946,-7.0244823187,-0.1081755136
 Recover connectivity data from disk.
                           ----------------------------
                           !    Current Parameters    !
                           ! (Angstroms and Degrees)  !
 --------------------------                            --------------------------
 ! Name  Definition              Value          Derivative Info.                !
 --------------------------------------------------------------------------------
 ! R1    R(1,6)                  1.366          estimate D2E/DX2                !
 ! R2    R(1,13)                 1.3585         estimate D2E/DX2                !
 ! R3    R(2,18)                 1.2321         estimate D2E/DX2                !
 ! R4    R(3,5)                  1.3683         estimate D2E/DX2                !
 ! R5    R(3,9)                  1.4588         estimate D2E/DX2                !
 ! R6    R(3,10)                 1.4584         estimate D2E/DX2                !
 ! R7    R(4,7)                  1.2944         estimate D2E/DX2                !
 ! R8    R(4,8)                  1.3751         estimate D2E/DX2                !
 ! R9    R(5,11)                 1.4112         estimate D2E/DX2                !
 ! R10   R(5,14)                 1.4243         estimate D2E/DX2                !
 ! R11   R(6,8)                  1.4002         estimate D2E/DX2                !
 ! R12   R(6,11)                 1.3798         estimate D2E/DX2                !
 ! R13   R(7,12)                 1.4694         estimate D2E/DX2                !
 ! R14   R(7,13)                 1.4631         estimate D2E/DX2                !
 ! R15   R(8,16)                 1.4025         estimate D2E/DX2                !
 ! R16   R(9,19)                 1.5275         estimate D2E/DX2                !
 ! R17   R(9,25)                 1.0944         estimate D2E/DX2                !
 ! R18   R(9,26)                 1.0933         estimate D2E/DX2                !
 ! R19   R(10,20)                1.5277         estimate D2E/DX2                !
 ! R20   R(10,27)                1.0944         estimate D2E/DX2                !
 ! R21   R(10,28)                1.0936         estimate D2E/DX2                !
 ! R22   R(11,29)                1.0815         estimate D2E/DX2                !
 ! R23   R(12,15)                1.4043         estimate D2E/DX2                !
 ! R24   R(12,21)                1.3999         estimate D2E/DX2                !
 ! R25   R(13,17)                1.3503         estimate D2E/DX2                !
 ! R26   R(14,16)                1.376          estimate D2E/DX2                !
 ! R27   R(14,30)                1.0815         estimate D2E/DX2                !
 ! R28   R(15,18)                1.4911         estimate D2E/DX2                !
 ! R29   R(15,22)                1.397          estimate D2E/DX2                !
 ! R30   R(16,31)                1.0855         estimate D2E/DX2                !
 ! R31   R(17,18)                1.4514         estimate D2E/DX2                !
 ! R32   R(17,32)                1.0842         estimate D2E/DX2                !
 ! R33   R(19,33)                1.0948         estimate D2E/DX2                !
 ! R34   R(19,34)                1.0939         estimate D2E/DX2                !
 ! R35   R(19,35)                1.0952         estimate D2E/DX2                !
 ! R36   R(20,36)                1.0938         estimate D2E/DX2                !
 ! R37   R(20,37)                1.0948         estimate D2E/DX2                !
 ! R38   R(20,38)                1.0951         estimate D2E/DX2                !
 ! R39   R(21,23)                1.3855         estimate D2E/DX2                !
 ! R40   R(21,39)                1.084          estimate D2E/DX2                !
 ! R41   R(22,24)                1.3856         estimate D2E/DX2                !
 ! R42   R(22,40)                1.0847         estimate D2E/DX2                !
 ! R43   R(23,24)                1.398          estimate D2E/DX2                !
 ! R44   R(23,41)                1.086          estimate D2E/DX2                !
 ! R45   R(24,42)                1.0857         estimate D2E/DX2                !
 ! A1    A(6,1,13)             120.0332         estimate D2E/DX2                !
 ! A2    A(5,3,9)              122.0701         estimate D2E/DX2                !
 ! A3    A(5,3,10)             121.7893         estimate D2E/DX2                !
 ! A4    A(9,3,10)             116.1392         estimate D2E/DX2                !
 ! A5    A(7,4,8)              118.713          estimate D2E/DX2                !
 ! A6    A(3,5,11)             121.2198         estimate D2E/DX2                !
 ! A7    A(3,5,14)             121.2875         estimate D2E/DX2                !
 ! A8    A(11,5,14)            117.4925         estimate D2E/DX2                !
 ! A9    A(1,6,8)              119.3668         estimate D2E/DX2                !
 ! A10   A(1,6,11)             117.5805         estimate D2E/DX2                !
 ! A11   A(8,6,11)             123.0503         estimate D2E/DX2                !
 ! A12   A(4,7,12)             120.7402         estimate D2E/DX2                !
 ! A13   A(4,7,13)             122.1109         estimate D2E/DX2                !
 ! A14   A(12,7,13)            117.1489         estimate D2E/DX2                !
 ! A15   A(4,8,6)              121.6883         estimate D2E/DX2                !
 ! A16   A(4,8,16)             121.3676         estimate D2E/DX2                !
 ! A17   A(6,8,16)             116.9441         estimate D2E/DX2                !
 ! A18   A(3,9,19)             113.6301         estimate D2E/DX2                !
 ! A19   A(3,9,25)             107.1186         estimate D2E/DX2                !
 ! A20   A(3,9,26)             109.4775         estimate D2E/DX2                !
 ! A21   A(19,9,25)            109.7053         estimate D2E/DX2                !
 ! A22   A(19,9,26)            110.8179         estimate D2E/DX2                !
 ! A23   A(25,9,26)            105.7277         estimate D2E/DX2                !
 ! A24   A(3,10,20)            113.6145         estimate D2E/DX2                !
 ! A25   A(3,10,27)            107.2139         estimate D2E/DX2                !
 ! A26   A(3,10,28)            109.3486         estimate D2E/DX2                !
 ! A27   A(20,10,27)           109.704          estimate D2E/DX2                !
 ! A28   A(20,10,28)           110.8229         estimate D2E/DX2                !
 ! A29   A(27,10,28)           105.7814         estimate D2E/DX2                !
 ! A30   A(5,11,6)             119.8428         estimate D2E/DX2                !
 ! A31   A(5,11,29)            122.3299         estimate D2E/DX2                !
 ! A32   A(6,11,29)            117.8138         estimate D2E/DX2                !
 ! A33   A(7,12,15)            119.9691         estimate D2E/DX2                !
 ! A34   A(7,12,21)            120.6493         estimate D2E/DX2                !
 ! A35   A(15,12,21)           119.3816         estimate D2E/DX2                !
 ! A36   A(1,13,7)             118.0868         estimate D2E/DX2                !
 ! A37   A(1,13,17)            118.5247         estimate D2E/DX2                !
 ! A38   A(7,13,17)            123.3885         estimate D2E/DX2                !
 ! A39   A(5,14,16)            121.2106         estimate D2E/DX2                !
 ! A40   A(5,14,30)            120.2663         estimate D2E/DX2                !
 ! A41   A(16,14,30)           118.5124         estimate D2E/DX2                !
 ! A42   A(12,15,18)           121.0032         estimate D2E/DX2                !
 ! A43   A(12,15,22)           119.8376         estimate D2E/DX2                !
 ! A44   A(18,15,22)           119.1592         estimate D2E/DX2                !
 ! A45   A(8,16,14)            121.4587         estimate D2E/DX2                !
 ! A46   A(8,16,31)            118.0723         estimate D2E/DX2                !
 ! A47   A(14,16,31)           120.4668         estimate D2E/DX2                !
 ! A48   A(13,17,18)           121.1507         estimate D2E/DX2                !
 ! A49   A(13,17,32)           120.7765         estimate D2E/DX2                !
 ! A50   A(18,17,32)           118.0727         estimate D2E/DX2                !
 ! A51   A(2,18,15)            121.1234         estimate D2E/DX2                !
 ! A52   A(2,18,17)            121.5371         estimate D2E/DX2                !
 ! A53   A(15,18,17)           117.3395         estimate D2E/DX2                !
 ! A54   A(9,19,33)            110.8232         estimate D2E/DX2                !
 ! A55   A(9,19,34)            111.3884         estimate D2E/DX2                !
 ! A56   A(9,19,35)            110.3357         estimate D2E/DX2                !
 ! A57   A(33,19,34)           107.8437         estimate D2E/DX2                !
 ! A58   A(33,19,35)           108.0473         estimate D2E/DX2                !
 ! A59   A(34,19,35)           108.2847         estimate D2E/DX2                !
 ! A60   A(10,20,36)           111.4479         estimate D2E/DX2                !
 ! A61   A(10,20,37)           110.782          estimate D2E/DX2                !
 ! A62   A(10,20,38)           110.3236         estimate D2E/DX2                !
 ! A63   A(36,20,37)           107.8666         estimate D2E/DX2                !
 ! A64   A(36,20,38)           108.2521         estimate D2E/DX2                !
 ! A65   A(37,20,38)           108.0501         estimate D2E/DX2                !
 ! A66   A(12,21,23)           120.2677         estimate D2E/DX2                !
 ! A67   A(12,21,39)           118.869          estimate D2E/DX2                !
 ! A68   A(23,21,39)           120.8633         estimate D2E/DX2                !
 ! A69   A(15,22,24)           120.3897         estimate D2E/DX2                !
 ! A70   A(15,22,40)           118.2786         estimate D2E/DX2                !
 ! A71   A(24,22,40)           121.3317         estimate D2E/DX2                !
 ! A72   A(21,23,24)           120.3117         estimate D2E/DX2                !
 ! A73   A(21,23,41)           119.696          estimate D2E/DX2                !
 ! A74   A(24,23,41)           119.9923         estimate D2E/DX2                !
 ! A75   A(22,24,23)           119.8118         estimate D2E/DX2                !
 ! A76   A(22,24,42)           120.0807         estimate D2E/DX2                !
 ! A77   A(23,24,42)           120.1075         estimate D2E/DX2                !
 ! D1    D(13,1,6,8)            -0.2549         estimate D2E/DX2                !
 ! D2    D(13,1,6,11)         -179.7028         estimate D2E/DX2                !
 ! D3    D(6,1,13,7)             0.015          estimate D2E/DX2                !
 ! D4    D(6,1,13,17)         -179.9473         estimate D2E/DX2                !
 ! D5    D(9,3,5,11)           173.8791         estimate D2E/DX2                !
 ! D6    D(9,3,5,14)            -6.2516         estimate D2E/DX2                !
 ! D7    D(10,3,5,11)           -5.6842         estimate D2E/DX2                !
 ! D8    D(10,3,5,14)          174.1851         estimate D2E/DX2                !
 ! D9    D(5,3,9,19)            88.2354         estimate D2E/DX2                !
 ! D10   D(5,3,9,25)          -150.442          estimate D2E/DX2                !
 ! D11   D(5,3,9,26)           -36.2511         estimate D2E/DX2                !
 ! D12   D(10,3,9,19)          -92.178          estimate D2E/DX2                !
 ! D13   D(10,3,9,25)           29.1445         estimate D2E/DX2                !
 ! D14   D(10,3,9,26)          143.3355         estimate D2E/DX2                !
 ! D15   D(5,3,10,20)           87.7286         estimate D2E/DX2                !
 ! D16   D(5,3,10,27)         -150.8935         estimate D2E/DX2                !
 ! D17   D(5,3,10,28)          -36.6537         estimate D2E/DX2                !
 ! D18   D(9,3,10,20)          -91.8593         estimate D2E/DX2                !
 ! D19   D(9,3,10,27)           29.5186         estimate D2E/DX2                !
 ! D20   D(9,3,10,28)          143.7585         estimate D2E/DX2                !
 ! D21   D(8,4,7,12)           179.9871         estimate D2E/DX2                !
 ! D22   D(8,4,7,13)            -0.0285         estimate D2E/DX2                !
 ! D23   D(7,4,8,6)             -0.2237         estimate D2E/DX2                !
 ! D24   D(7,4,8,16)           179.8108         estimate D2E/DX2                !
 ! D25   D(3,5,11,6)           179.7124         estimate D2E/DX2                !
 ! D26   D(3,5,11,29)           -1.6522         estimate D2E/DX2                !
 ! D27   D(14,5,11,6)           -0.1617         estimate D2E/DX2                !
 ! D28   D(14,5,11,29)         178.4737         estimate D2E/DX2                !
 ! D29   D(3,5,14,16)         -179.9947         estimate D2E/DX2                !
 ! D30   D(3,5,14,30)           -1.2032         estimate D2E/DX2                !
 ! D31   D(11,5,14,16)          -0.1207         estimate D2E/DX2                !
 ! D32   D(11,5,14,30)         178.6708         estimate D2E/DX2                !
 ! D33   D(1,6,8,4)              0.3707         estimate D2E/DX2                !
 ! D34   D(1,6,8,16)          -179.6623         estimate D2E/DX2                !
 ! D35   D(11,6,8,4)           179.7869         estimate D2E/DX2                !
 ! D36   D(11,6,8,16)           -0.2461         estimate D2E/DX2                !
 ! D37   D(1,6,11,5)           179.7794         estimate D2E/DX2                !
 ! D38   D(1,6,11,29)            1.0831         estimate D2E/DX2                !
 ! D39   D(8,6,11,5)             0.3534         estimate D2E/DX2                !
 ! D40   D(8,6,11,29)         -178.3429         estimate D2E/DX2                !
 ! D41   D(4,7,12,15)          179.9627         estimate D2E/DX2                !
 ! D42   D(4,7,12,21)           -0.0431         estimate D2E/DX2                !
 ! D43   D(13,7,12,15)          -0.0225         estimate D2E/DX2                !
 ! D44   D(13,7,12,21)         179.9717         estimate D2E/DX2                !
 ! D45   D(4,7,13,1)             0.1348         estimate D2E/DX2                !
 ! D46   D(4,7,13,17)         -179.9049         estimate D2E/DX2                !
 ! D47   D(12,7,13,1)         -179.8803         estimate D2E/DX2                !
 ! D48   D(12,7,13,17)           0.0801         estimate D2E/DX2                !
 ! D49   D(4,8,16,14)          179.9194         estimate D2E/DX2                !
 ! D50   D(4,8,16,31)            0.4522         estimate D2E/DX2                !
 ! D51   D(6,8,16,14)           -0.0477         estimate D2E/DX2                !
 ! D52   D(6,8,16,31)         -179.5149         estimate D2E/DX2                !
 ! D53   D(3,9,19,33)           59.1073         estimate D2E/DX2                !
 ! D54   D(3,9,19,34)          -60.9617         estimate D2E/DX2                !
 ! D55   D(3,9,19,35)          178.7402         estimate D2E/DX2                !
 ! D56   D(25,9,19,33)         -60.7587         estimate D2E/DX2                !
 ! D57   D(25,9,19,34)         179.1722         estimate D2E/DX2                !
 ! D58   D(25,9,19,35)          58.8741         estimate D2E/DX2                !
 ! D59   D(26,9,19,33)        -177.1319         estimate D2E/DX2                !
 ! D60   D(26,9,19,34)          62.7991         estimate D2E/DX2                !
 ! D61   D(26,9,19,35)         -57.499          estimate D2E/DX2                !
 ! D62   D(3,10,20,36)         -60.6489         estimate D2E/DX2                !
 ! D63   D(3,10,20,37)          59.4609         estimate D2E/DX2                !
 ! D64   D(3,10,20,38)         179.063          estimate D2E/DX2                !
 ! D65   D(27,10,20,36)        179.3745         estimate D2E/DX2                !
 ! D66   D(27,10,20,37)        -60.5157         estimate D2E/DX2                !
 ! D67   D(27,10,20,38)         59.0864         estimate D2E/DX2                !
 ! D68   D(28,10,20,36)         62.9335         estimate D2E/DX2                !
 ! D69   D(28,10,20,37)       -176.9567         estimate D2E/DX2                !
 ! D70   D(28,10,20,38)        -57.3546         estimate D2E/DX2                !
 ! D71   D(7,12,15,18)          -0.0477         estimate D2E/DX2                !
 ! D72   D(7,12,15,22)         179.9574         estimate D2E/DX2                !
 ! D73   D(21,12,15,18)        179.958          estimate D2E/DX2                !
 ! D74   D(21,12,15,22)         -0.0369         estimate D2E/DX2                !
 ! D75   D(7,12,21,23)        -179.9678         estimate D2E/DX2                !
 ! D76   D(7,12,21,39)           0.0346         estimate D2E/DX2                !
 ! D77   D(15,12,21,23)          0.0265         estimate D2E/DX2                !
 ! D78   D(15,12,21,39)       -179.9712         estimate D2E/DX2                !
 ! D79   D(1,13,17,18)         179.8978         estimate D2E/DX2                !
 ! D80   D(1,13,17,32)          -0.0368         estimate D2E/DX2                !
 ! D81   D(7,13,17,18)          -0.0624         estimate D2E/DX2                !
 ! D82   D(7,13,17,32)        -179.997          estimate D2E/DX2                !
 ! D83   D(5,14,16,8)            0.2278         estimate D2E/DX2                !
 ! D84   D(5,14,16,31)         179.6823         estimate D2E/DX2                !
 ! D85   D(30,14,16,8)        -178.5843         estimate D2E/DX2                !
 ! D86   D(30,14,16,31)          0.8702         estimate D2E/DX2                !
 ! D87   D(12,15,18,2)        -179.9694         estimate D2E/DX2                !
 ! D88   D(12,15,18,17)          0.0662         estimate D2E/DX2                !
 ! D89   D(22,15,18,2)           0.0254         estimate D2E/DX2                !
 ! D90   D(22,15,18,17)       -179.9389         estimate D2E/DX2                !
 ! D91   D(12,15,22,24)          0.0248         estimate D2E/DX2                !
 ! D92   D(12,15,22,40)       -179.9641         estimate D2E/DX2                !
 ! D93   D(18,15,22,24)       -179.9701         estimate D2E/DX2                !
 ! D94   D(18,15,22,40)          0.0409         estimate D2E/DX2                !
 ! D95   D(13,17,18,2)        -179.9754         estimate D2E/DX2                !
 ! D96   D(13,17,18,15)         -0.0112         estimate D2E/DX2                !
 ! D97   D(32,17,18,2)          -0.0391         estimate D2E/DX2                !
 ! D98   D(32,17,18,15)        179.9251         estimate D2E/DX2                !
 ! D99   D(12,21,23,24)         -0.0038         estimate D2E/DX2                !
 ! D100  D(12,21,23,41)        179.9965         estimate D2E/DX2                !
 ! D101  D(39,21,23,24)        179.9938         estimate D2E/DX2                !
 ! D102  D(39,21,23,41)         -0.0059         estimate D2E/DX2                !
 ! D103  D(15,22,24,23)         -0.0021         estimate D2E/DX2                !
 ! D104  D(15,22,24,42)       -179.9985         estimate D2E/DX2                !
 ! D105  D(40,22,24,23)        179.9866         estimate D2E/DX2                !
 ! D106  D(40,22,24,42)         -0.0099         estimate D2E/DX2                !
 ! D107  D(21,23,24,22)         -0.0086         estimate D2E/DX2                !
 ! D108  D(21,23,24,42)        179.9879         estimate D2E/DX2                !
 ! D109  D(41,23,24,22)        179.9911         estimate D2E/DX2                !
 ! D110  D(41,23,24,42)         -0.0125         estimate D2E/DX2                !
 --------------------------------------------------------------------------------
                          Input orientation:                          
 ---------------------------------------------------------------------
 Center     Atomic      Atomic             Coordinates (Angstroms)
 Number     Number       Type             X           Y           Z
 ---------------------------------------------------------------------
      1          8           0        1.369296   -0.092186    0.075037
      2          8           0        2.712804   -4.566457    0.144742
      3          7           0        0.096598    4.504532    0.003025
      4          7           0       -1.296322   -0.907811   -0.091198
      5          6           0       -0.239933    3.178534   -0.021421
      6          6           0        0.375695    0.843469    0.018661
      7          6           0       -0.351413   -1.790625   -0.034681
      8          6           0       -0.957652    0.424787   -0.068358
      9          6           0       -0.893330    5.558589   -0.189875
     10          6           0        1.470812    4.944636    0.214746
     11          6           0        0.747400    2.172064    0.039339
     12          6           0       -0.662799   -3.226455   -0.055726
     13          6           0        1.059905   -1.414771    0.051770
     14          6           0       -1.599292    2.761824   -0.106328
     15          6           0        0.375159   -4.170317    0.005598
     16          6           0       -1.935951    1.427847   -0.130695
     17          6           0        2.066028   -2.313501    0.110122
     18          6           0        1.800320   -3.740215    0.091391
     19          6           0       -1.572478    6.004882    1.103553
     20          6           0        2.286449    5.045382   -1.073118
     21          6           0       -1.988772   -3.668014   -0.136483
     22          6           0        0.075934   -5.534719   -0.013700
     23          6           0       -2.273428   -5.023867   -0.155116
     24          6           0       -1.239508   -5.962797   -0.093545
     25          1           0       -0.375155    6.407512   -0.646512
     26          1           0       -1.633910    5.233016   -0.925278
     27          1           0        1.425950    5.924217    0.700686
     28          1           0        1.958043    4.278677    0.932376
     29          1           0        1.803769    2.399918    0.080867
     30          1           0       -2.393595    3.495309   -0.133552
     31          1           0       -2.976313    1.123738   -0.190439
     32          1           0        3.098129   -1.987510    0.173536
     33          1           0       -0.835152    6.378456    1.821426
     34          1           0       -2.112046    5.179086    1.576307
     35          1           0       -2.286381    6.810140    0.900330
     36          1           0        2.358913    4.077470   -1.577390
     37          1           0        1.826390    5.753535   -1.769901
     38          1           0        3.300918    5.395001   -0.854467
     39          1           0       -2.783446   -2.932257   -0.183893
     40          1           0        0.897122   -6.241644    0.035455
     41          1           0       -3.305410   -5.356106   -0.217898
     42          1           0       -1.466362   -7.024482   -0.108176
 ---------------------------------------------------------------------
                    Distance matrix (angstroms):
                    1          2          3          4          5
     1  O    0.000000
     2  O    4.672148   0.000000
     3  N    4.770196   9.441793   0.000000
     4  N    2.792561   5.432720   5.589504   0.000000
     5  C    3.646441   8.290425   1.368255   4.221261   0.000000
     6  C    1.365969   5.894512   3.671720   2.423776   2.415188
     7  C    2.420242   4.138461   6.311192   1.294376   4.970427
     8  C    2.387994   6.199208   4.214363   1.375150   2.846128
     9  C    6.092694  10.753266   1.458836   6.479697   2.473857
    10  C    5.039782   9.592097   1.458418   6.480877   2.470129
    11  C    2.348373   7.020084   2.421832   3.698576   1.411206
    12  C    3.737666   3.637374   7.768416   2.403897   6.419024
    13  C    1.358490   3.560034   5.997373   2.414385   4.774242
    14  C    4.121987   8.506521   2.434139   3.682151   1.424329
    15  C    4.198128   2.375052   8.679321   3.667038   7.374597
    16  C    3.643829   7.590683   3.689868   2.421979   2.439943
    17  C    2.328284   2.344212   7.097584   3.649917   5.957953
    18  C    3.673440   1.232132   8.419402   4.200600   7.214184
    19  C    6.847344  11.447103   2.499605   7.020613   3.321067
    20  C    5.343597   9.698062   2.499209   7.017187   3.312671
    21  C    4.909980   4.794904   8.435564   2.846095   7.067312
    22  C    5.594803   2.813489  10.039286   4.826735   8.718980
    23  C    6.135461   5.016138   9.820001   4.230927   8.451767
    24  C    6.426379   4.198490  10.552700   5.055306   9.196102
    25  H    6.768295  11.427579   2.065377   7.393975   3.291705
    26  H    6.194970  10.773510   2.094538   6.206400   2.642163
    27  H    6.049112  10.583918   2.066256   7.396922   3.291714
    28  H    4.492894   8.912151   2.092769   6.207919   2.636502
    29  H    2.529700   7.025725   2.711068   4.536655   2.189388
    30  H    5.203170   9.546980   2.690398   4.537980   2.179720
    31  H    4.520318   8.053367   4.572744   2.638069   3.426154
    32  H    2.567259   2.607733   7.154361   4.532884   6.153753
    33  H    7.055401  11.627140   2.772423   7.547218   3.740304
    34  H    6.493063  10.968326   2.794342   6.363670   3.171711
    35  H    7.854120  12.449487   3.435051   7.844113   4.269208
    36  H    4.593026   8.820909   2.792519   6.357871   3.159608
    37  H    6.146966  10.533462   2.774068   7.546052   3.735974
    38  H    5.891041  10.028706   3.434515   7.838535   4.259614
    39  H    5.037690   5.743463   7.977182   2.513665   6.620999
    40  H    6.167686   2.472831  10.776001   5.768624   9.488724
    41  H    7.046101   6.080621  10.433343   4.882604   9.070603
    42  H    7.492080   4.855027  11.635007   6.119058  10.276828
                    6          7          8          9         10
     6  C    0.000000
     7  C    2.733127   0.000000
     8  C    1.400243   2.297110   0.000000
     9  C    4.887358   7.370801   5.135643   0.000000
    10  C    4.249389   6.981867   5.138737   2.475848   0.000000
    11  C    1.379767   4.112879   2.443722   3.770025   2.870758
    12  C    4.200986   1.469357   3.663150   8.789092   8.449389
    13  C    2.359849   1.463065   2.732937   7.245776   6.374752
    14  C    2.756135   4.720924   2.423815   2.885699   3.780647
    15  C    5.013803   2.488466   4.785064   9.813200   9.182950
    16  C    2.389040   3.588669   1.402527   4.260703   4.908479
    17  C    3.582185   2.477577   4.083224   8.415319   7.283253
    18  C    4.800521   2.906329   4.997917   9.685175   8.691975
    19  C    5.622504   7.972234   5.734879   1.527539   3.343009
    20  C    4.743314   7.400517   5.734424   3.339834   1.527745
    21  C    5.095905   2.493170   4.221240   9.291558   9.288155
    22  C    6.385310   3.768462   6.048719  11.136965  10.574250
    23  C    6.440006   3.763309   5.605946  10.672125  10.654913
    24  C    6.996194   4.266052   6.393850  11.526989  11.243352
    25  H    5.653743   8.220971   6.038755   1.094391   2.507861
    26  H    4.919111   7.195102   4.930588   1.093286   3.319957
    27  H    5.232800   7.951011   6.042906   2.511143   1.094408
    28  H    3.890933   6.565457   4.935100   3.320836   1.093566
    29  H    2.113244   4.713684   3.398361   4.162312   2.569897
    30  H    3.837237   5.667573   3.390322   2.551684   4.141920
    31  H    3.370198   3.925287   2.139726   4.899666   5.877105
    32  H    3.930658   3.461424   4.725151   8.544438   7.120710
    33  H    5.945772   8.391247   6.247597   2.172763   3.155112
    34  H    5.235714   7.366953   5.161483   2.179149   3.840012
    35  H    6.592811   8.865186   6.593679   2.166915   4.250486
    36  H    4.115737   6.645326   5.159348   3.833535   2.180012
    37  H    5.423303   8.041652   6.248335   3.151406   2.172459
    38  H    5.480486   8.102148   6.592148   4.249724   2.166871
    39  H    4.927201   2.690794   3.823169   8.698681   8.961198
    40  H    7.104294   4.623346   6.920425  11.937420  11.202416
    41  H    7.213960   4.633824   6.241238  11.178081  11.362428
    42  H    8.081703   5.351801   7.466726  12.596378  12.328466
                   11         12         13         14         15
    11  C    0.000000
    12  C    5.580475   0.000000
    13  C    3.600444   2.502292   0.000000
    14  C    2.424046   6.061275   4.953813   0.000000
    15  C    6.353385   1.404277   2.839726   7.208714   0.000000
    16  C    2.789829   4.825874   4.133875   1.376019   6.057990
    17  C    4.675904   2.882271   1.350334   6.264211   2.513509
    18  C    6.005530   2.520426   2.440794   7.339820   1.491118
    19  C    4.604876   9.348210   7.942729   3.461496  10.417940
    20  C    3.444152   8.840612   6.671083   4.609587   9.473424
    21  C    6.451671   1.399893   3.795652   6.441694   2.420881
    22  C    7.736161   2.423959   4.236326   8.464489   1.396961
    23  C    7.806704   2.415511   4.917264   7.814974   2.787362
    24  C    8.375048   2.796711   5.098329   8.732046   2.414532
    25  H    4.435036   9.656349   7.983427   3.883472  10.624438
    26  H    3.996317   8.559312   7.239083   2.603587   9.660515
    27  H    3.869944   9.416466   7.376709   4.450179  10.172853
    28  H    2.588628   8.010753   5.830735   4.004295   8.645805
    29  H    1.081460   6.144810   3.886648   3.427366   6.724179
    30  H    3.412729   6.941456   6.005821   1.081508   8.151514
    31  H    3.875285   4.928962   4.774280   2.141633   6.268797
    32  H    4.779748   3.966374   2.120663   6.685825   3.493911
    33  H    4.834671   9.788142   8.213240   4.168954  10.772126
    34  H    4.425030   8.684295   7.474252   2.989538   9.801258
    35  H    5.608644  10.211920   8.920025   4.227803  11.333789
    36  H    2.973442   8.049442   5.874205   4.422932   8.629433
    37  H    4.155057   9.474950   7.435765   4.842840  10.185348
    38  H    4.207929   9.522528   7.226091   5.612966  10.039676
    39  H    6.210540   2.144789   4.138798   5.816425   3.397864
    40  H    8.415041   3.396032   4.829645   9.344229   2.136290
    41  H    8.553641   3.397809   5.887514   8.296027   3.873324
    42  H    9.460389   3.882458   6.154386   9.787209   3.398589
                   16         17         18         19         20
    16  C    0.000000
    17  C    5.483750   0.000000
    18  C    6.381059   1.451367   0.000000
    19  C    4.754443   9.133516  10.361812   0.000000
    20  C    5.639448   7.456661   8.875760   4.533194   0.000000
    21  C    5.096138   4.282163   3.796624   9.760938   9.750798
    22  C    7.248358   3.788410   2.490943  11.710163  10.860353
    23  C    6.460581   5.123213   4.278311  11.122450  11.091662
    24  C    7.423479   4.928023   3.770229  12.032010  11.600514
    25  H    5.243970   9.087790  10.404497   2.158337   3.020186
    26  H    3.898961   8.468264   9.661595   2.171568   3.927629
    27  H    5.675466   8.283626   9.690854   3.026446   2.158515
    28  H    4.941715   6.644138   8.064413   3.933657   2.172024
    29  H    3.869778   4.720800   6.140143   5.043877   2.926284
    30  H    2.117509   7.327338   8.366141   2.915925   5.018796
    31  H    1.085544   6.109840   6.823026   5.241254   6.622317
    32  H    6.090910   1.084216   2.182437   9.303646   7.188500
    33  H    5.434249   9.321777  10.598407   1.094782   4.460926
    34  H    4.125126   8.703153   9.852183   1.093878   5.136544
    35  H    5.491347  10.139463  11.343082   1.095171   5.283904
    36  H    5.249694   6.616493   8.013304   5.134024   1.093798
    37  H    5.962699   8.286675   9.674522   4.457826   1.094825
    38  H    6.609611   7.866154   9.305838   5.287323   1.095075
    39  H    4.442025   4.897622   4.662562   9.110237   9.494065
    40  H    8.177714   4.099052   2.660083  12.538627  11.426115
    41  H    6.921347   6.182022   5.364256  11.568117  11.840238
    42  H    8.465394   5.892264   4.636534  13.086019  12.676605
                   21         22         23         24         25
    21  C    0.000000
    22  C    2.786157   0.000000
    23  C    1.385537   2.408416   0.000000
    24  C    2.414388   1.385645   1.397988   0.000000
    25  H   10.216659  11.967490  11.598334  12.412793   0.000000
    26  H    8.942955  10.940688  10.305619  11.233591   1.744023
    27  H   10.216265  11.560282  11.587853  12.208054   2.300542
    28  H    8.936986  10.036939  10.277418  10.777971   3.531095
    29  H    7.158939   8.121134   8.473004   8.900953   4.619264
    30  H    7.174753   9.362390   8.520051   9.528341   3.580245
    31  H    4.892753   7.326834   6.187757   7.296907   5.906971
    32  H    5.366262   4.663841   6.179085   5.889765   9.122093
    33  H   10.300282  12.088073  11.661404  12.495486   2.510609
    34  H    9.012216  11.049932  10.350079  11.300058   3.076808
    35  H   10.533531  12.602045  11.880988  12.854247   2.491509
    36  H    8.998394  10.002564  10.310954  10.768351   3.710897
    37  H   10.295101  11.557379  11.643386  12.226297   2.556655
    38  H   10.518296  11.426557  11.837028  12.255368   3.818629
    39  H    1.084017   3.870119   2.153086   3.402364   9.656354
    40  H    3.870597   1.084670   3.401718   2.158607  12.731258
    41  H    2.142386   3.392210   1.085962   2.156732  12.130656
    42  H    3.396998   2.146392   2.157781   1.085750  13.486994
                   26         27         28         29         30
    26  H    0.000000
    27  H    3.533307   0.000000
    28  H    4.154969   1.744880   0.000000
    29  H    4.566881   3.598278   2.068479   0.000000
    30  H    2.055134   4.602659   4.548255   4.343238   0.000000
    31  H    4.384998   6.574088   5.963408   4.954940   2.442775
    32  H    8.702619   8.103672   6.414105   4.575312   7.766250
    33  H    3.081303   2.564171   3.605748   5.081556   3.816179
    34  H    2.547440   3.720128   4.217939   5.029287   2.416194
    35  H    2.499177   3.821796   4.942112   6.070495   3.473977
    36  H    4.207513   3.077422   2.549530   2.423258   5.000991
    37  H    3.599722   2.508641   3.081369   3.830483   5.058211
    38  H    4.937993   2.492804   2.498459   3.476612   6.046157
    39  H    8.279056   9.845742   8.702032   7.038802   6.439575
    40  H   11.789697  12.195506  10.611653   8.689112  10.279379
    41  H   10.743547  12.266836  11.038846   9.292410   8.898655
    42  H   12.285845  13.292425  11.856252   9.977415  10.560607
                   31         32         33         34         35
    31  H    0.000000
    32  H    6.834559   0.000000
    33  H    6.020319   9.390188   0.000000
    34  H    4.507128   8.970719   1.768907   0.000000
    35  H    5.831034  10.340205   1.772240   1.774169   0.000000
    36  H    6.254023   6.355797   5.200821   5.581114   5.931723
    37  H    6.855340   8.081958   4.513530   5.199844   5.016117
    38  H    7.621565   7.456500   5.023411   5.937631   6.024935
    39  H    4.060583   5.967682   9.721448   8.327243   9.815138
    40  H    8.324865   4.791780  12.863025  11.910600  13.462235
    41  H    6.488253   7.246100  12.163921  10.753305  12.259951
    42  H    8.287352   6.803310  13.555831  12.336186  13.895550
                   36         37         38         39         40
    36  H    0.000000
    37  H    1.769135   0.000000
    38  H    1.773662   1.772229   0.000000
    39  H    8.804656   9.960371  10.335008   0.000000
    40  H   10.546194  12.165820  11.915608   4.954466   0.000000
    41  H   11.087160  12.335648  12.634678   2.479646   4.302284
    42  H   11.834047  13.299672  13.323944   4.299622   2.493897
                   41         42
    41  H    0.000000
    42  H    2.485481   0.000000
 Symmetry turned off by external request.
 Stoichiometry    C20H18N2O2(1-)
 Framework group  C1[X(C20H18N2O2)]
 Deg. of freedom   120
 Full point group                 C1      NOp   1
 Rotational constants (GHZ):           0.6556847           0.1068064           0.0934188
 Electric field and nuclear coordinate derivatives read from checkpoint file.
 Full mass-weighted force constant matrix:
 Low frequencies ---   -5.0750   -0.0008   -0.0005    0.0001    3.9743    6.5020
 Low frequencies ---   30.3839   36.4267   66.3493
 Diagonal vibrational polarizability:
       17.7184506     121.7271915      87.5374298
 Harmonic frequencies (cm**-1), IR intensities (KM/Mole), Raman scattering
 activities (A**4/AMU), depolarization ratios for plane and unpolarized
 incident light, reduced masses (AMU), force constants (mDyne/A),
 and normal coordinates:
                      1                      2                      3
                      A                      A                      A
 Frequencies --     30.2726                36.2771                66.3261
 Red. masses --      4.6435                 4.6163                 4.2992
 Frc consts  --      0.0025                 0.0036                 0.0111
 IR Inten    --      1.9061                 0.3402                 0.7912
  Atom  AN      X      Y      Z        X      Y      Z        X      Y      Z
     1   8     0.01  -0.00  -0.10     0.01   0.00  -0.12    -0.01   0.01   0.20
     2   8     0.00  -0.00  -0.09    -0.02  -0.00   0.23     0.01   0.01  -0.14
     3   7     0.00  -0.00   0.02     0.00   0.00   0.01     0.01   0.01  -0.04
     4   7     0.00   0.00  -0.10     0.01   0.00  -0.08     0.01   0.02  -0.03
     5   6     0.00  -0.00  -0.05     0.01   0.00  -0.03     0.01   0.02  -0.04
     6   6     0.01  -0.00  -0.10     0.01   0.00  -0.10     0.00   0.01   0.08
     7   6     0.00  -0.00  -0.06     0.00   0.00  -0.07     0.00   0.02   0.05
     8   6     0.01  -0.00  -0.13     0.01   0.00  -0.08     0.01   0.02  -0.04
     9   6     0.00   0.01   0.04    -0.02   0.01   0.17    -0.01   0.01   0.08
    10   6    -0.02  -0.01   0.16     0.02  -0.00  -0.07     0.03   0.01  -0.09
    11   6     0.00  -0.00  -0.06     0.01   0.00  -0.09     0.00   0.01   0.08
    12   6    -0.00  -0.00   0.02     0.00   0.00  -0.04    -0.00   0.02   0.03
    13   6     0.00  -0.00  -0.08     0.00   0.00  -0.05    -0.00   0.01   0.12
    14   6     0.01   0.00  -0.12     0.00   0.00  -0.01     0.02   0.02  -0.17
    15   6    -0.01  -0.00   0.02    -0.01   0.00   0.06    -0.00   0.02  -0.02
    16   6     0.01   0.00  -0.15     0.00   0.00  -0.03     0.02   0.02  -0.17
    17   6     0.00  -0.00  -0.09    -0.00   0.00   0.03    -0.00   0.01   0.09
    18   6    -0.00  -0.00  -0.06    -0.01   0.00   0.12     0.00   0.01  -0.03
    19   6    -0.06  -0.08   0.04     0.07  -0.12   0.26    -0.05  -0.20   0.13
    20   6     0.08   0.09   0.23    -0.08   0.06  -0.12    -0.01  -0.10  -0.12
    21   6    -0.01   0.00   0.10     0.00   0.00  -0.10    -0.01   0.02   0.07
    22   6    -0.01  -0.00   0.11    -0.01   0.00   0.09    -0.00   0.02  -0.05
    23   6    -0.02   0.00   0.19     0.00   0.01  -0.07    -0.01   0.02   0.04
    24   6    -0.02   0.00   0.20    -0.01   0.00   0.03    -0.01   0.02  -0.02
    25   1     0.02   0.04   0.12    -0.06   0.06   0.21    -0.02   0.09   0.21
    26   1     0.04   0.05  -0.01    -0.07   0.07   0.19     0.01   0.09   0.01
    27   1    -0.06  -0.04   0.22     0.05  -0.02  -0.02     0.05   0.04  -0.15
    28   1    -0.07  -0.06   0.14     0.07  -0.03  -0.13     0.03   0.05  -0.05
    29   1     0.00   0.00  -0.03     0.01   0.00  -0.11     0.00   0.01   0.18
    30   1     0.01  -0.00  -0.14     0.00   0.00   0.03     0.02   0.01  -0.29
    31   1     0.01   0.00  -0.18     0.00   0.01  -0.02     0.03   0.02  -0.28
    32   1     0.01  -0.00  -0.12    -0.00  -0.00   0.05    -0.00   0.01   0.12
    33   1    -0.10  -0.12   0.10     0.12  -0.17   0.24    -0.08  -0.26   0.19
    34   1    -0.08  -0.11  -0.04     0.12  -0.17   0.22    -0.02  -0.29   0.01
    35   1    -0.06  -0.07   0.05     0.04  -0.11   0.39    -0.09  -0.20   0.23
    36   1     0.13   0.13   0.16    -0.12   0.08  -0.17    -0.05  -0.13  -0.06
    37   1     0.13   0.14   0.24    -0.13   0.09  -0.06    -0.01  -0.13  -0.14
    38   1     0.06   0.09   0.33    -0.06   0.05  -0.18     0.01  -0.11  -0.17
    39   1    -0.01   0.00   0.09     0.01   0.01  -0.18    -0.01   0.03   0.11
    40   1    -0.01  -0.00   0.12    -0.02   0.00   0.17    -0.00   0.01  -0.10
    41   1    -0.02   0.00   0.26     0.00   0.01  -0.12    -0.01   0.03   0.07
    42   1    -0.02   0.00   0.27    -0.01   0.00   0.06    -0.01   0.02  -0.04
                      4                      5                      6
                      A                      A                      A
 Frequencies --     73.6843                83.8918               100.9247
 Red. masses --      3.6028                 4.2067                 3.3262
 Frc consts  --      0.0115                 0.0174                 0.0200
 IR Inten    --      0.2239                 0.1214                 0.5081
  Atom  AN      X      Y      Z        X      Y      Z        X      Y      Z
     1   8     0.05  -0.03   0.01     0.05  -0.01   0.02    -0.03  -0.02   0.11
     2   8    -0.03  -0.06   0.01    -0.02  -0.05  -0.03     0.01  -0.01  -0.08
     3   7     0.02  -0.00  -0.05     0.01   0.01   0.20    -0.01  -0.01   0.01
     4   7     0.03   0.00   0.09     0.05   0.01  -0.13    -0.01  -0.03  -0.07
     5   6     0.05  -0.01  -0.03     0.04  -0.00   0.14    -0.01  -0.01  -0.00
     6   6     0.06  -0.01   0.01     0.05  -0.00   0.03    -0.02  -0.02   0.03
     7   6     0.02  -0.01   0.07     0.04   0.00  -0.10    -0.01  -0.03  -0.01
     8   6     0.05  -0.00   0.06     0.06   0.00  -0.05    -0.01  -0.02  -0.05
     9   6    -0.02  -0.04  -0.04     0.01  -0.03   0.01     0.02   0.02   0.00
    10   6    -0.01   0.07  -0.01     0.03   0.03  -0.00    -0.01   0.01   0.00
    11   6     0.06  -0.01  -0.05     0.05  -0.00   0.13    -0.02  -0.02   0.03
    12   6    -0.01   0.00   0.04     0.01   0.01  -0.08    -0.01  -0.03  -0.01
    13   6     0.03  -0.02   0.03     0.04  -0.01  -0.03    -0.02  -0.02   0.07
    14   6     0.05  -0.01   0.00     0.05  -0.00   0.07    -0.01  -0.02  -0.05
    15   6    -0.03  -0.02   0.00    -0.01  -0.01  -0.01     0.00  -0.03  -0.00
    16   6     0.05  -0.01   0.05     0.05   0.00  -0.02    -0.01  -0.02  -0.09
    17   6     0.01  -0.05   0.01     0.02  -0.03  -0.02    -0.02  -0.02   0.08
    18   6    -0.02  -0.04   0.01    -0.01  -0.03  -0.03    -0.00  -0.02  -0.01
    19   6    -0.12  -0.15  -0.05    -0.17   0.03  -0.10     0.19   0.18   0.03
    20   6    -0.04   0.31  -0.01    -0.15  -0.01  -0.13    -0.10   0.22  -0.03
    21   6    -0.02   0.03   0.04     0.00   0.04  -0.09    -0.00  -0.05  -0.01
    22   6    -0.05  -0.01  -0.06    -0.05  -0.00   0.10     0.01  -0.03   0.02
    23   6    -0.04   0.04  -0.02    -0.03   0.04   0.02     0.01  -0.05   0.01
    24   6    -0.06   0.02  -0.08    -0.06   0.02   0.12     0.02  -0.04   0.03
    25   1    -0.04   0.01   0.04     0.05  -0.04   0.04     0.02  -0.06  -0.14
    26   1     0.04  -0.03  -0.10     0.11  -0.08  -0.06    -0.07  -0.02   0.11
    27   1    -0.06  -0.01   0.13     0.08   0.05  -0.04    -0.03  -0.05   0.14
    28   1     0.05  -0.00  -0.12     0.14   0.07  -0.04     0.06  -0.06  -0.11
    29   1     0.06   0.00  -0.10     0.04   0.00   0.20    -0.02  -0.03   0.07
    30   1     0.05  -0.01  -0.01     0.05  -0.00   0.09    -0.01  -0.02  -0.06
    31   1     0.05  -0.01   0.08     0.06  -0.00  -0.08    -0.01  -0.01  -0.14
    32   1     0.02  -0.07  -0.00     0.03  -0.05   0.01    -0.02  -0.01   0.12
    33   1    -0.18  -0.14   0.01    -0.27   0.10  -0.03     0.29   0.18  -0.07
    34   1    -0.09  -0.20  -0.12    -0.21   0.05  -0.12     0.17   0.26   0.15
    35   1    -0.15  -0.18  -0.04    -0.17   0.00  -0.25     0.24   0.22   0.04
    36   1     0.04   0.38  -0.14    -0.22  -0.04  -0.09    -0.07   0.28  -0.15
    37   1    -0.11   0.36   0.09    -0.26  -0.05  -0.09    -0.19   0.28   0.08
    38   1    -0.06   0.37   0.02    -0.13   0.01  -0.29    -0.11   0.26  -0.05
    39   1    -0.00   0.05   0.08     0.02   0.06  -0.15    -0.01  -0.06  -0.02
    40   1    -0.07  -0.03  -0.10    -0.07  -0.02   0.17     0.02  -0.02   0.03
    41   1    -0.05   0.06  -0.03    -0.04   0.07   0.02     0.01  -0.06   0.02
    42   1    -0.08   0.02  -0.13    -0.09   0.03   0.22     0.03  -0.04   0.05
                      7                      8                      9
                      A                      A                      A
 Frequencies --    118.3305               132.5039               158.6220
 Red. masses --      4.4389                 3.4284                 5.8999
 Frc consts  --      0.0366                 0.0355                 0.0875
 IR Inten    --      1.6151                 1.7821                 0.3191
  Atom  AN      X      Y      Z        X      Y      Z        X      Y      Z
     1   8     0.01  -0.00  -0.08    -0.09  -0.00  -0.01    -0.03  -0.00   0.12
     2   8    -0.01  -0.01   0.17     0.02   0.08  -0.01    -0.02   0.01   0.25
     3   7     0.00  -0.00   0.16     0.10  -0.00   0.07     0.02   0.01  -0.13
     4   7     0.00  -0.00  -0.03    -0.09   0.01   0.02    -0.02   0.00  -0.10
     5   6     0.01  -0.00   0.03     0.04   0.02   0.03     0.01   0.01   0.06
     6   6     0.01  -0.00  -0.07    -0.07  -0.00   0.01    -0.02   0.00   0.14
     7   6    -0.00  -0.00   0.04    -0.09   0.00   0.00    -0.02  -0.00  -0.16
     8   6     0.01  -0.00  -0.10    -0.08   0.02   0.03    -0.02   0.00   0.03
     9   6     0.04   0.02   0.05     0.15   0.03   0.01    -0.03  -0.03  -0.06
    10   6     0.03  -0.03   0.04     0.13  -0.06   0.00    -0.01   0.07  -0.06
    11   6     0.01  -0.00  -0.01    -0.01  -0.02   0.01    -0.01  -0.00   0.20
    12   6    -0.00  -0.00   0.10    -0.04  -0.02  -0.00    -0.01  -0.01  -0.17
    13   6     0.00  -0.00  -0.02    -0.09   0.01  -0.01    -0.02  -0.00  -0.09
    14   6     0.01   0.00  -0.06     0.02   0.06   0.01     0.00   0.01   0.06
    15   6     0.01  -0.00  -0.05     0.00   0.02   0.01     0.01   0.00  -0.20
    16   6     0.01   0.00  -0.12    -0.04   0.07   0.02    -0.01   0.01   0.04
    17   6     0.00  -0.00  -0.01    -0.06   0.05  -0.02    -0.01   0.01  -0.16
    18   6     0.00  -0.00   0.04    -0.01   0.05  -0.00    -0.01   0.01  -0.06
    19   6    -0.03   0.10  -0.02    -0.06  -0.08  -0.06     0.06  -0.09   0.01
    20   6    -0.10  -0.04  -0.04     0.02   0.07  -0.06     0.08   0.08  -0.00
    21   6    -0.01  -0.00   0.24    -0.01  -0.10  -0.03    -0.01  -0.03   0.03
    22   6     0.02  -0.00  -0.22     0.08   0.00   0.03     0.02  -0.00  -0.14
    23   6    -0.00  -0.00   0.12     0.06  -0.12  -0.02    -0.00  -0.04   0.19
    24   6     0.01  -0.00  -0.17     0.10  -0.07   0.02     0.02  -0.02   0.07
    25   1     0.10  -0.01   0.05     0.23   0.07   0.18    -0.09  -0.00  -0.08
    26   1     0.08   0.01   0.01     0.26   0.11  -0.14    -0.07  -0.05  -0.01
    27   1     0.09  -0.03   0.06     0.20  -0.12   0.13    -0.08   0.08  -0.09
    28   1     0.08  -0.04  -0.01     0.17  -0.16  -0.12    -0.02   0.12  -0.01
    29   1     0.00  -0.01   0.03    -0.00  -0.08  -0.01    -0.01  -0.01   0.24
    30   1     0.01   0.00  -0.05     0.05   0.09  -0.01     0.01   0.01   0.03
    31   1     0.01   0.00  -0.15    -0.05   0.12   0.01    -0.01   0.03  -0.01
    32   1     0.00  -0.00  -0.02    -0.07   0.09  -0.03    -0.02   0.02  -0.06
    33   1    -0.07   0.10   0.02    -0.18  -0.18   0.10     0.10  -0.02  -0.07
    34   1    -0.11   0.15  -0.03    -0.17  -0.11  -0.23     0.19  -0.14   0.06
    35   1     0.02   0.13  -0.11    -0.01  -0.04  -0.11    -0.03  -0.15   0.09
    36   1    -0.19  -0.03  -0.06    -0.07   0.13  -0.19     0.23   0.05   0.07
    37   1    -0.15  -0.01   0.02    -0.00   0.19   0.07     0.06  -0.02  -0.09
    38   1    -0.07  -0.07  -0.14     0.06  -0.00  -0.11     0.02   0.21   0.06
    39   1    -0.02  -0.00   0.42    -0.06  -0.15  -0.05    -0.03  -0.05   0.12
    40   1     0.03  -0.00  -0.38     0.12   0.05   0.05     0.04   0.01  -0.17
    41   1    -0.01  -0.00   0.22     0.08  -0.17  -0.04    -0.01  -0.05   0.40
    42   1     0.02  -0.00  -0.31     0.16  -0.08   0.03     0.03  -0.03   0.17
                     10                     11                     12
                      A                      A                      A
 Frequencies --    176.6504               197.3318               220.6084
 Red. masses --      4.8061                 2.0120                 1.2520
 Frc consts  --      0.0884                 0.0462                 0.0359
 IR Inten    --      4.4232                 0.6631                 0.0267
  Atom  AN      X      Y      Z        X      Y      Z        X      Y      Z
     1   8    -0.01   0.00  -0.06    -0.00  -0.01  -0.05    -0.01   0.00  -0.00
     2   8     0.00   0.02  -0.10    -0.03  -0.01  -0.03     0.01   0.02  -0.01
     3   7     0.02   0.00  -0.03     0.01   0.04   0.01     0.01  -0.02   0.00
     4   7    -0.00   0.01  -0.18    -0.01   0.02  -0.01    -0.01  -0.00  -0.03
     5   6     0.01   0.00   0.02     0.05   0.03   0.03    -0.00  -0.02   0.03
     6   6    -0.00   0.00  -0.10     0.02   0.01  -0.02    -0.01  -0.01   0.00
     7   6    -0.01   0.00  -0.09    -0.04  -0.01   0.03    -0.00   0.01   0.01
     8   6    -0.00   0.01  -0.09     0.02   0.02  -0.04    -0.01  -0.00  -0.03
     9   6    -0.02  -0.03  -0.02    -0.04  -0.00   0.01    -0.00  -0.05  -0.02
    10   6     0.02   0.01  -0.02    -0.01   0.13  -0.02     0.01  -0.03   0.00
    11   6     0.01  -0.00  -0.10     0.04   0.02   0.04    -0.01  -0.01   0.04
    12   6    -0.01   0.00  -0.06    -0.04  -0.02   0.07     0.00   0.01   0.04
    13   6    -0.02   0.00   0.10    -0.03  -0.01  -0.01    -0.00   0.01  -0.00
    14   6    -0.00   0.01   0.20     0.05   0.03   0.01    -0.01  -0.01   0.02
    15   6     0.00   0.01  -0.07    -0.03  -0.01   0.07     0.00   0.02   0.04
    16   6    -0.01   0.01   0.10     0.03   0.03  -0.03    -0.01  -0.00  -0.02
    17   6    -0.03   0.01   0.37    -0.03  -0.01  -0.03     0.00   0.02  -0.03
    18   6    -0.01   0.01   0.06    -0.03  -0.01   0.01     0.01   0.02   0.00
    19   6    -0.03  -0.05  -0.02    -0.02   0.01   0.02     0.03  -0.03  -0.01
    20   6     0.06  -0.00   0.01     0.04   0.00  -0.00     0.00   0.01  -0.00
    21   6    -0.01  -0.01   0.05    -0.02  -0.07   0.03     0.00   0.02   0.02
    22   6     0.02   0.01  -0.09     0.02  -0.02   0.03    -0.00   0.02   0.02
    23   6     0.00  -0.02   0.11     0.02  -0.09  -0.04    -0.00   0.03  -0.02
    24   6     0.01  -0.01   0.00     0.04  -0.06  -0.04    -0.00   0.03  -0.02
    25   1    -0.05  -0.01  -0.02    -0.11   0.00  -0.05    -0.04  -0.05  -0.07
    26   1    -0.01  -0.07  -0.01    -0.06  -0.07   0.05    -0.01  -0.10   0.01
    27   1     0.00   0.02  -0.04    -0.07   0.19  -0.15     0.03  -0.05   0.05
    28   1    -0.00   0.02   0.00     0.01   0.24   0.08     0.01  -0.07  -0.03
    29   1     0.02  -0.01  -0.15     0.04   0.01   0.09    -0.01  -0.02   0.05
    30   1    -0.00   0.02   0.38     0.05   0.03   0.02    -0.00  -0.01   0.03
    31   1    -0.02   0.02   0.20     0.03   0.05  -0.04    -0.01  -0.00  -0.03
    32   1    -0.05   0.02   0.54    -0.03  -0.01  -0.08     0.00   0.02  -0.06
    33   1    -0.05   0.06  -0.05    -0.03   0.25  -0.09    -0.01   0.40  -0.20
    34   1     0.06  -0.08   0.03     0.20  -0.04   0.16     0.42  -0.15   0.23
    35   1    -0.12  -0.13  -0.03    -0.20  -0.16  -0.01    -0.32  -0.36  -0.07
    36   1     0.11  -0.01   0.03     0.34  -0.11   0.26    -0.23   0.07  -0.16
    37   1     0.08  -0.02  -0.02    -0.12  -0.31  -0.21     0.14   0.22   0.13
    38   1     0.05   0.02   0.05    -0.07   0.34  -0.03     0.08  -0.25   0.03
    39   1    -0.02  -0.02   0.10    -0.05  -0.10   0.02     0.01   0.03   0.02
    40   1     0.03   0.01  -0.13     0.04   0.01   0.03    -0.01   0.01   0.01
    41   1    -0.00  -0.03   0.22     0.03  -0.11  -0.11    -0.00   0.03  -0.05
    42   1     0.02  -0.01   0.02     0.07  -0.07  -0.10    -0.00   0.03  -0.06
                     13                     14                     15
                      A                      A                      A
 Frequencies --    225.4969               235.1825               265.9860
 Red. masses --      2.2863                 1.8751                 6.0017
 Frc consts  --      0.0685                 0.0611                 0.2502
 IR Inten    --      2.2005                 0.3138                 0.2668
  Atom  AN      X      Y      Z        X      Y      Z        X      Y      Z
     1   8    -0.02   0.01  -0.04     0.01  -0.00  -0.04    -0.02  -0.00   0.36
     2   8     0.04   0.05  -0.02    -0.01  -0.02  -0.02    -0.00   0.01   0.05
     3   7     0.02  -0.07  -0.01    -0.01   0.03  -0.07     0.00  -0.00   0.02
     4   7    -0.01  -0.02  -0.06     0.01   0.00  -0.09     0.00   0.00  -0.13
     5   6    -0.03  -0.05   0.06    -0.00   0.02   0.06     0.01  -0.01  -0.05
     6   6    -0.04  -0.02   0.01     0.01   0.01   0.02     0.01  -0.00  -0.10
     7   6     0.01   0.01   0.01     0.00  -0.00  -0.00    -0.00   0.00   0.02
     8   6    -0.04  -0.02  -0.05     0.02   0.01  -0.06     0.01   0.00  -0.18
     9   6     0.05  -0.07  -0.04    -0.04   0.02  -0.02    -0.01  -0.01   0.04
    10   6     0.02  -0.06  -0.00    -0.02   0.05  -0.04     0.02  -0.03  -0.01
    11   6    -0.04  -0.04   0.09    -0.00   0.02   0.11     0.02  -0.00  -0.29
    12   6     0.02   0.03   0.06    -0.01  -0.01   0.07    -0.01   0.00   0.06
    13   6     0.00   0.02  -0.01     0.00  -0.00  -0.01    -0.01   0.00   0.05
    14   6    -0.04  -0.03   0.05    -0.00   0.01   0.08    -0.01   0.00   0.21
    15   6     0.02   0.03   0.07    -0.01  -0.01   0.08    -0.00   0.01   0.06
    16   6    -0.04  -0.03  -0.01     0.01   0.00  -0.00    -0.00   0.00   0.02
    17   6     0.01   0.03  -0.02    -0.00  -0.01  -0.03     0.01   0.00  -0.22
    18   6     0.03   0.03   0.02    -0.01  -0.01   0.02     0.00   0.00  -0.04
    19   6     0.07  -0.08  -0.03     0.00  -0.01   0.01    -0.06   0.03   0.00
    20   6    -0.00   0.03  -0.01     0.04   0.01  -0.00     0.04  -0.01  -0.00
    21   6     0.01   0.07   0.04    -0.01  -0.02   0.05    -0.01   0.00   0.05
    22   6    -0.01   0.04   0.03    -0.00  -0.01   0.03    -0.00   0.01   0.05
    23   6    -0.01   0.08  -0.03     0.01  -0.02  -0.03     0.00  -0.00  -0.04
    24   6    -0.02   0.07  -0.05     0.01  -0.02  -0.05     0.01   0.00  -0.04
    25   1     0.06  -0.07  -0.03    -0.04   0.03  -0.02    -0.03  -0.01   0.03
    26   1     0.05  -0.06  -0.04    -0.05   0.03  -0.01    -0.00  -0.04   0.04
    27   1    -0.01  -0.08   0.04    -0.04   0.05  -0.06     0.04  -0.04   0.01
    28   1     0.04  -0.07  -0.03    -0.05   0.06  -0.01     0.01  -0.05  -0.03
    29   1    -0.04  -0.04   0.11    -0.00   0.02   0.15     0.03  -0.00  -0.34
    30   1    -0.03  -0.02   0.06    -0.01   0.00   0.10    -0.01   0.01   0.51
    31   1    -0.04  -0.03  -0.03     0.01   0.00  -0.01    -0.01   0.00   0.14
    32   1     0.01   0.05  -0.05     0.00  -0.02  -0.07     0.02   0.01  -0.31
    33   1     0.10  -0.25   0.02     0.07  -0.35   0.11    -0.09   0.01   0.04
    34   1    -0.06  -0.04  -0.11    -0.27   0.07  -0.16    -0.13   0.07  -0.00
    35   1     0.19   0.04   0.03     0.25   0.24   0.10    -0.01   0.06  -0.06
    36   1     0.41  -0.03   0.17    -0.27   0.07  -0.17     0.14  -0.01   0.02
    37   1    -0.29  -0.29  -0.14     0.30   0.29   0.11    -0.00  -0.07  -0.03
    38   1    -0.15   0.49  -0.05     0.15  -0.37   0.09     0.00   0.08   0.02
    39   1     0.04   0.10   0.05    -0.01  -0.03   0.06    -0.01  -0.00   0.06
    40   1    -0.03   0.01   0.02     0.00  -0.01   0.03     0.00   0.01   0.05
    41   1    -0.01   0.10  -0.08     0.01  -0.03  -0.09     0.01  -0.00  -0.10
    42   1    -0.04   0.07  -0.11     0.02  -0.02  -0.14     0.01   0.00  -0.11
                     16                     17                     18
                      A                      A                      A
 Frequencies --    291.4396               317.4213               341.6089
 Red. masses --      3.5275                 4.6992                 3.4630
 Frc consts  --      0.1765                 0.2790                 0.2381
 IR Inten    --      3.2143                 8.7171                 6.6604
  Atom  AN      X      Y      Z        X      Y      Z        X      Y      Z
     1   8    -0.03   0.01  -0.02    -0.06  -0.04  -0.01     0.00  -0.02  -0.03
     2   8     0.08  -0.06  -0.00     0.24   0.22   0.02    -0.12  -0.07  -0.00
     3   7     0.00   0.07  -0.04     0.03  -0.00   0.06     0.00  -0.06   0.03
     4   7     0.02  -0.06  -0.03    -0.07  -0.05   0.05    -0.02  -0.01   0.04
     5   6    -0.09   0.06   0.01     0.10  -0.03   0.01    -0.00  -0.06   0.03
     6   6    -0.07   0.00   0.02    -0.03  -0.04  -0.03    -0.01  -0.04  -0.00
     7   6     0.05  -0.04  -0.01    -0.05  -0.05   0.03    -0.00   0.01   0.04
     8   6    -0.06  -0.03   0.00    -0.04  -0.05  -0.01    -0.01  -0.03  -0.01
     9   6     0.06   0.17   0.07    -0.08  -0.10   0.04    -0.08  -0.10   0.11
    10   6     0.06  -0.02  -0.08     0.02   0.14  -0.04     0.05  -0.04  -0.12
    11   6    -0.11   0.02   0.04     0.05  -0.06  -0.03    -0.01  -0.05   0.03
    12   6     0.08  -0.05   0.01     0.03  -0.06  -0.01    -0.03   0.06  -0.00
    13   6     0.04  -0.02  -0.01    -0.08  -0.02   0.01     0.01  -0.01   0.01
    14   6    -0.08   0.03   0.01     0.10  -0.02  -0.02    -0.01  -0.06  -0.02
    15   6     0.05  -0.10   0.02     0.05  -0.08  -0.03    -0.01   0.10  -0.03
    16   6    -0.06  -0.00   0.01     0.02  -0.00  -0.04    -0.02  -0.05  -0.06
    17   6     0.03  -0.05   0.00    -0.06   0.03   0.00     0.03   0.01   0.01
    18   6     0.05  -0.08   0.01     0.07   0.02  -0.00    -0.02   0.04  -0.01
    19   6    -0.10   0.09   0.03    -0.04   0.04   0.02    -0.11   0.10   0.05
    20   6     0.13   0.05  -0.04     0.08   0.02  -0.02     0.19   0.06  -0.06
    21   6     0.06   0.02   0.02     0.01   0.03  -0.03    -0.02   0.03  -0.03
    22   6    -0.04  -0.09   0.01    -0.08  -0.06  -0.02     0.06   0.10  -0.02
    23   6    -0.02   0.04  -0.01    -0.09   0.06  -0.00     0.05   0.02   0.01
    24   6    -0.07  -0.02  -0.02    -0.13   0.03   0.02     0.08   0.06   0.03
    25   1     0.14   0.20   0.22    -0.19  -0.11  -0.10    -0.16  -0.12  -0.01
    26   1     0.10   0.30  -0.03    -0.11  -0.23   0.13    -0.12  -0.18   0.18
    27   1     0.12  -0.05  -0.02    -0.06   0.20  -0.17     0.05  -0.05  -0.10
    28   1     0.04  -0.07  -0.12     0.06   0.26   0.05     0.08  -0.03  -0.14
    29   1    -0.11   0.02   0.03     0.07  -0.11   0.02    -0.00  -0.06   0.03
    30   1    -0.10   0.01  -0.03     0.11  -0.02   0.01    -0.01  -0.06  -0.02
    31   1    -0.06   0.00  -0.01    -0.00   0.07  -0.04    -0.01  -0.06  -0.11
    32   1     0.03  -0.06  -0.00    -0.08   0.09  -0.00     0.03   0.03  -0.01
    33   1    -0.24   0.32   0.06     0.01  -0.06   0.03    -0.13   0.14   0.05
    34   1     0.05   0.00   0.05    -0.21   0.16   0.04    -0.26   0.25   0.12
    35   1    -0.27  -0.09  -0.08     0.12   0.17  -0.04     0.01   0.16  -0.15
    36   1     0.30   0.06  -0.04    -0.05   0.01  -0.02     0.32   0.11  -0.13
    37   1     0.12   0.00  -0.08     0.25   0.11  -0.04     0.31   0.12  -0.07
    38   1     0.07   0.16   0.06     0.13  -0.16   0.05     0.14   0.06   0.17
    39   1     0.11   0.07   0.03     0.08   0.10  -0.04    -0.05   0.01  -0.06
    40   1    -0.10  -0.15   0.01    -0.15  -0.15  -0.03     0.10   0.15  -0.03
    41   1    -0.04   0.10  -0.02    -0.11   0.11   0.01     0.06  -0.03   0.02
    42   1    -0.13  -0.00  -0.05    -0.18   0.04   0.06     0.12   0.06   0.08
                     19                     20                     21
                      A                      A                      A
 Frequencies --    361.8598               373.7642               413.3606
 Red. masses --      5.0951                 5.5138                 4.4655
 Frc consts  --      0.3931                 0.4538                 0.4496
 IR Inten    --      6.4259                16.6526                21.5971
  Atom  AN      X      Y      Z        X      Y      Z        X      Y      Z
     1   8     0.08   0.00   0.02     0.12   0.07  -0.05     0.05   0.12   0.05
     2   8     0.04   0.19  -0.02     0.02   0.18   0.02    -0.06   0.04  -0.01
     3   7    -0.03  -0.03  -0.06    -0.04  -0.01  -0.06     0.01  -0.01   0.22
     4   7     0.03   0.01  -0.10     0.07   0.02   0.06     0.06  -0.01   0.08
     5   6     0.01  -0.04  -0.08    -0.08   0.01   0.09    -0.11   0.03   0.06
     6   6     0.09  -0.00   0.12     0.11   0.05  -0.06    -0.01   0.07  -0.01
     7   6    -0.00  -0.01  -0.20     0.02  -0.01   0.22     0.08   0.01  -0.10
     8   6     0.10  -0.02   0.14     0.13   0.01  -0.12     0.00   0.01   0.05
     9   6    -0.02   0.02   0.08     0.02   0.05  -0.01     0.00  -0.11  -0.04
    10   6    -0.01  -0.15  -0.03    -0.00  -0.13  -0.04     0.06   0.08  -0.03
    11   6     0.06   0.00   0.01    -0.01   0.07   0.07    -0.09   0.07  -0.09
    12   6    -0.07  -0.01  -0.03    -0.06  -0.03   0.04     0.02  -0.02  -0.05
    13   6    -0.01   0.03  -0.10     0.02   0.07   0.12     0.08   0.09  -0.10
    14   6     0.04  -0.07  -0.09    -0.06  -0.04   0.11    -0.12  -0.01  -0.02
    15   6    -0.06   0.01   0.09    -0.06  -0.04  -0.09    -0.04  -0.06  -0.00
    16   6     0.08  -0.07   0.10     0.07  -0.07  -0.10    -0.04  -0.04  -0.06
    17   6    -0.04   0.05   0.02    -0.03   0.05  -0.03     0.01   0.04   0.04
    18   6    -0.05   0.08   0.02    -0.07   0.06  -0.03    -0.07   0.02  -0.01
    19   6    -0.08   0.10   0.04    -0.00  -0.00  -0.00     0.08  -0.09  -0.05
    20   6     0.02  -0.00  -0.01     0.03   0.01  -0.01     0.10   0.04  -0.04
    21   6    -0.08  -0.04   0.12    -0.05  -0.08  -0.13     0.01  -0.05   0.07
    22   6    -0.04   0.01   0.09    -0.06  -0.06  -0.11    -0.04  -0.08   0.07
    23   6    -0.05  -0.05  -0.00    -0.06  -0.09  -0.00    -0.01  -0.05  -0.01
    24   6    -0.02  -0.03  -0.12    -0.07  -0.09   0.12    -0.04  -0.09  -0.06
    25   1     0.01   0.02   0.11     0.07   0.05   0.05    -0.08  -0.14  -0.18
    26   1    -0.04   0.09   0.06     0.02   0.11  -0.04     0.02  -0.30   0.02
    27   1     0.07  -0.21   0.11     0.08  -0.19   0.09     0.03   0.13  -0.15
    28   1    -0.05  -0.27  -0.12    -0.04  -0.24  -0.12     0.15   0.20   0.02
    29   1     0.06   0.02  -0.06    -0.03   0.15   0.07    -0.11   0.15  -0.15
    30   1     0.03  -0.08  -0.20    -0.11  -0.09   0.17    -0.17  -0.06  -0.06
    31   1     0.10  -0.14   0.11     0.10  -0.19  -0.14    -0.02  -0.10  -0.15
    32   1    -0.04   0.03   0.13     0.01  -0.04  -0.18     0.04  -0.08   0.19
    33   1    -0.15   0.21   0.05    -0.03   0.03   0.01     0.17  -0.20  -0.08
    34   1    -0.11   0.14   0.09     0.04  -0.04  -0.02     0.06  -0.09  -0.05
    35   1    -0.09   0.05  -0.11    -0.05  -0.04   0.01     0.12  -0.02   0.07
    36   1     0.16   0.03  -0.06     0.17   0.05  -0.07     0.11   0.04  -0.06
    37   1    -0.05  -0.03   0.02    -0.02  -0.00   0.01     0.22   0.09  -0.06
    38   1    -0.04   0.12   0.05    -0.02   0.12   0.06     0.11  -0.03   0.07
    39   1    -0.11  -0.06   0.22    -0.07  -0.10  -0.25    -0.01  -0.06   0.15
    40   1    -0.03   0.02   0.15    -0.04  -0.05  -0.19    -0.05  -0.07   0.15
    41   1    -0.05  -0.08  -0.02    -0.06  -0.09   0.01    -0.02  -0.02  -0.02
    42   1     0.02  -0.04  -0.28    -0.06  -0.10   0.29    -0.05  -0.09  -0.12
                     22                     23                     24
                      A                      A                      A
 Frequencies --    436.1949               442.5962               446.3620
 Red. masses --      3.4731                 3.6788                 6.2595
 Frc consts  --      0.3893                 0.4246                 0.7348
 IR Inten    --     16.0847                 1.9777                 2.7638
  Atom  AN      X      Y      Z        X      Y      Z        X      Y      Z
     1   8     0.01  -0.03   0.02     0.00   0.02   0.01     0.01   0.03  -0.14
     2   8    -0.06   0.06  -0.00    -0.01   0.01  -0.05    -0.04   0.01   0.03
     3   7     0.00   0.02   0.02     0.01  -0.00   0.05     0.01  -0.00   0.09
     4   7    -0.00  -0.13   0.01     0.01  -0.01  -0.09     0.03  -0.02  -0.33
     5   6    -0.02  -0.02  -0.01    -0.01   0.00  -0.03    -0.01   0.00  -0.06
     6   6    -0.01  -0.07  -0.06    -0.01   0.01   0.06    -0.03   0.01   0.16
     7   6     0.02  -0.08  -0.00     0.02  -0.00  -0.03     0.02  -0.01   0.16
     8   6     0.01  -0.14  -0.03    -0.01  -0.01   0.05    -0.02  -0.02   0.19
     9   6     0.13   0.14  -0.00     0.00  -0.02   0.00     0.01  -0.04   0.00
    10   6    -0.03   0.18   0.00     0.01   0.03   0.00     0.02   0.06   0.01
    11   6    -0.04  -0.05  -0.01    -0.01   0.01  -0.04    -0.02   0.01  -0.09
    12   6    -0.06  -0.01  -0.00     0.00  -0.00   0.05     0.01  -0.01  -0.02
    13   6     0.02  -0.02  -0.01     0.02   0.02  -0.01    -0.00   0.03   0.37
    14   6    -0.00  -0.13   0.00    -0.01  -0.01  -0.04    -0.01  -0.01  -0.09
    15   6    -0.02   0.07  -0.01    -0.02  -0.01   0.28    -0.00  -0.01  -0.12
    16   6     0.02  -0.15   0.04    -0.01  -0.01   0.05    -0.02  -0.02   0.10
    17   6     0.05   0.04   0.01     0.01   0.01  -0.06     0.01   0.02  -0.10
    18   6    -0.02   0.09  -0.01    -0.02   0.01   0.13    -0.02   0.02  -0.06
    19   6     0.03  -0.01  -0.01     0.01  -0.01  -0.01     0.02  -0.02  -0.01
    20   6    -0.01   0.02   0.00     0.01   0.01  -0.01     0.02   0.01  -0.01
    21   6    -0.08   0.01  -0.00     0.02  -0.00  -0.20     0.00  -0.01   0.06
    22   6     0.02   0.08   0.01     0.01  -0.01  -0.18    -0.01  -0.02   0.04
    23   6    -0.03   0.01  -0.01    -0.01  -0.00   0.18     0.01  -0.00  -0.07
    24   6     0.03   0.06   0.00    -0.00  -0.01  -0.01    -0.01  -0.02   0.03
    25   1     0.28   0.14   0.18    -0.01  -0.03  -0.03    -0.02  -0.05  -0.05
    26   1     0.18   0.31  -0.13     0.01  -0.06   0.01     0.02  -0.10   0.02
    27   1    -0.15   0.26  -0.19    -0.00   0.05  -0.04    -0.01   0.09  -0.07
    28   1     0.04   0.36   0.14     0.04   0.06   0.02     0.06   0.12   0.04
    29   1    -0.04  -0.04   0.10    -0.01   0.01  -0.07    -0.01   0.01  -0.27
    30   1    -0.04  -0.15  -0.01    -0.02  -0.01  -0.07    -0.02  -0.03  -0.21
    31   1     0.02  -0.17   0.11    -0.01  -0.01   0.05    -0.02  -0.02   0.02
    32   1     0.05   0.04   0.03     0.03  -0.01  -0.22     0.05  -0.01  -0.53
    33   1    -0.05   0.03   0.06     0.02  -0.02  -0.01     0.03  -0.04  -0.02
    34   1     0.13  -0.13  -0.11     0.00  -0.00  -0.00     0.01  -0.01  -0.01
    35   1    -0.08  -0.09   0.03     0.02   0.00  -0.00     0.03   0.00   0.00
    36   1    -0.13  -0.03   0.08    -0.00   0.00   0.00    -0.01  -0.00   0.01
    37   1     0.09   0.02  -0.06     0.03   0.01  -0.01     0.06   0.01  -0.03
    38   1     0.04  -0.11  -0.02     0.02  -0.02  -0.00     0.03  -0.03  -0.01
    39   1    -0.07   0.01   0.00     0.03  -0.01  -0.52    -0.00  -0.00   0.19
    40   1     0.03   0.09   0.01     0.03  -0.01  -0.53    -0.01  -0.02   0.16
    41   1    -0.01  -0.05  -0.01    -0.02   0.00   0.34     0.01   0.00  -0.11
    42   1     0.07   0.06   0.01    -0.00  -0.01  -0.12    -0.02  -0.01   0.12
                     25                     26                     27
                      A                      A                      A
 Frequencies --    470.7670               488.7413               502.6334
 Red. masses --      3.2511                 5.9144                 5.6345
 Frc consts  --      0.4245                 0.8324                 0.8387
 IR Inten    --      5.9886                20.8045                 2.5005
  Atom  AN      X      Y      Z        X      Y      Z        X      Y      Z
     1   8     0.00   0.07   0.04     0.01  -0.11   0.03    -0.08   0.06  -0.02
     2   8    -0.07   0.02   0.00     0.21  -0.07   0.02    -0.00  -0.03  -0.00
     3   7     0.04  -0.02  -0.01    -0.05  -0.02   0.15     0.08   0.04  -0.11
     4   7     0.02  -0.02  -0.01     0.04   0.13  -0.03     0.12  -0.08   0.02
     5   6     0.03  -0.00  -0.13    -0.11  -0.00  -0.04     0.08   0.04  -0.01
     6   6    -0.03   0.02  -0.15     0.09   0.00  -0.09    -0.13   0.02   0.04
     7   6     0.05   0.01   0.02    -0.07   0.01   0.00     0.13  -0.07   0.01
     8   6    -0.02  -0.01  -0.13     0.07   0.10  -0.05    -0.10  -0.02   0.01
     9   6    -0.01  -0.07   0.04     0.01  -0.01  -0.02    -0.05  -0.05   0.01
    10   6     0.04  -0.01   0.03    -0.02  -0.01  -0.05     0.07  -0.01   0.07
    11   6    -0.02  -0.00   0.13    -0.04   0.04   0.05    -0.01  -0.02  -0.01
    12   6     0.04  -0.01   0.04    -0.13   0.02   0.01    -0.08  -0.05  -0.00
    13   6     0.03   0.07   0.01    -0.00  -0.13   0.03     0.18   0.01  -0.01
    14   6     0.02   0.00  -0.15    -0.14   0.06  -0.13     0.07   0.04   0.04
    15   6    -0.01  -0.04  -0.03     0.02   0.11  -0.00    -0.00   0.07  -0.00
    16   6    -0.04   0.01   0.21    -0.03   0.04   0.14    -0.06   0.06  -0.06
    17   6    -0.01   0.03  -0.00     0.10  -0.06  -0.01     0.29   0.10   0.03
    18   6    -0.06   0.02  -0.02     0.19  -0.06   0.01     0.11   0.09   0.00
    19   6    -0.02   0.01   0.01     0.04  -0.03  -0.02    -0.04   0.02   0.02
    20   6    -0.01   0.00  -0.00     0.06   0.02  -0.03    -0.04  -0.02   0.02
    21   6     0.05  -0.00   0.01    -0.15  -0.07  -0.01    -0.13  -0.12  -0.00
    22   6    -0.01  -0.06  -0.01    -0.04   0.15  -0.01    -0.09   0.07  -0.01
    23   6     0.03   0.00  -0.02    -0.13  -0.09  -0.01    -0.17  -0.13  -0.01
    24   6    -0.02  -0.05   0.03    -0.02   0.04   0.01    -0.08  -0.02  -0.00
    25   1    -0.07  -0.06  -0.03     0.05  -0.05  -0.03    -0.20  -0.01  -0.09
    26   1    -0.02  -0.12   0.08     0.03  -0.02  -0.04    -0.08  -0.16   0.10
    27   1     0.02  -0.01   0.03    -0.02   0.01  -0.10     0.10  -0.04   0.14
    28   1     0.06   0.01   0.03     0.05   0.06  -0.03     0.00  -0.11   0.02
    29   1    -0.02  -0.04   0.54    -0.08   0.19   0.26     0.02  -0.15  -0.08
    30   1     0.03   0.01  -0.04    -0.15   0.04  -0.12     0.09   0.07   0.09
    31   1    -0.07   0.04   0.63    -0.00  -0.10   0.38    -0.09   0.20  -0.13
    32   1     0.02  -0.04   0.02     0.06   0.08  -0.03     0.30   0.07   0.05
    33   1    -0.04   0.04   0.01     0.08  -0.08  -0.04    -0.03   0.03   0.01
    34   1    -0.08   0.08   0.05     0.08  -0.07  -0.03    -0.11   0.09   0.06
    35   1     0.03   0.03  -0.09     0.02  -0.03   0.07     0.03   0.05  -0.06
    36   1    -0.04  -0.00   0.00     0.15   0.05  -0.07    -0.13  -0.04   0.05
    37   1    -0.06   0.00   0.03     0.16   0.07  -0.05    -0.18  -0.07   0.06
    38   1     0.01   0.00  -0.07     0.02   0.02   0.15    -0.00   0.00  -0.19
    39   1     0.05  -0.00  -0.01    -0.17  -0.09  -0.02    -0.13  -0.12  -0.01
    40   1    -0.01  -0.06  -0.02    -0.04   0.14  -0.02    -0.11   0.05  -0.01
    41   1     0.02   0.04  -0.06    -0.10  -0.18  -0.02    -0.16  -0.16  -0.02
    42   1    -0.06  -0.04   0.06     0.13   0.01   0.02     0.06  -0.06   0.01
                     28                     29                     30
                      A                      A                      A
 Frequencies --    528.0893               536.2176               561.5659
 Red. masses --      3.9024                 2.9871                 3.3100
 Frc consts  --      0.6412                 0.5060                 0.6150
 IR Inten    --      3.1194                13.5005                23.4844
  Atom  AN      X      Y      Z        X      Y      Z        X      Y      Z
     1   8     0.00  -0.00   0.02    -0.04  -0.01   0.01     0.09  -0.02  -0.00
     2   8     0.00  -0.00   0.02    -0.03  -0.01  -0.00     0.04  -0.00   0.00
     3   7     0.00  -0.00   0.02    -0.06   0.15   0.13     0.13   0.07  -0.11
     4   7     0.00   0.00  -0.09    -0.02  -0.09  -0.01    -0.06  -0.03   0.00
     5   6    -0.01  -0.00  -0.03     0.03   0.10   0.02    -0.09   0.09  -0.04
     6   6    -0.00  -0.00   0.13    -0.02   0.00  -0.03     0.04  -0.03   0.02
     7   6    -0.00   0.00  -0.06    -0.01  -0.07  -0.00    -0.05  -0.01   0.00
     8   6     0.00   0.00   0.04     0.02  -0.08  -0.01     0.06  -0.05   0.00
     9   6     0.01  -0.01   0.00    -0.15   0.10  -0.12    -0.02  -0.07   0.02
    10   6     0.00   0.01   0.00     0.04  -0.09  -0.00     0.18   0.06   0.12
    11   6    -0.00   0.00  -0.05    -0.01   0.03   0.01    -0.15   0.03  -0.01
    12   6    -0.02   0.00   0.30    -0.00  -0.04   0.01    -0.03  -0.00  -0.01
    13   6     0.01  -0.00  -0.18    -0.03  -0.01  -0.00    -0.03  -0.02  -0.00
    14   6    -0.01  -0.00  -0.01     0.09  -0.02  -0.03    -0.10   0.02   0.00
    15   6     0.00  -0.00  -0.05     0.02   0.00   0.00     0.00   0.01  -0.00
    16   6    -0.00  -0.00   0.02     0.09  -0.03   0.04     0.08  -0.05  -0.01
    17   6    -0.01  -0.00   0.05     0.00   0.02  -0.00    -0.06  -0.04  -0.00
[...]
    28850.6495    0.224571D+02
    28853.6495    0.223145D+02
    28856.6495    0.221736D+02
    28859.6495    0.220342D+02
    28862.6495    0.218965D+02
    28865.6495    0.217603D+02
    28868.6495    0.216258D+02
    28871.6495    0.214928D+02
    28874.6495    0.213612D+02
    28877.6495    0.212312D+02
    28880.6495    0.211027D+02
    28883.6495    0.209757D+02
    28886.6495    0.208500D+02
    28889.6495    0.207259D+02
    28892.6495    0.206032D+02
    28895.6495    0.204818D+02
    28898.6495    0.203618D+02
    28901.6495    0.202432D+02
    28904.6495    0.201259D+02
    28907.6495    0.200099D+02
    28910.6495    0.198952D+02
    28913.6495    0.197818D+02
    28916.6495    0.196697D+02
    28919.6495    0.195588D+02
    28922.6495    0.194491D+02
    28925.6495    0.193406D+02
    28928.6495    0.192333D+02
    28931.6495    0.191272D+02
    28934.6495    0.190223D+02
    28937.6495    0.189184D+02
    28940.6495    0.188158D+02
    28943.6495    0.187142D+02
    28946.6495    0.186138D+02
    28949.6495    0.185143D+02
    28952.6495    0.184161D+02
    28955.6495    0.183189D+02
    28958.6495    0.182228D+02
    28961.6495    0.181277D+02
    28964.6495    0.180338D+02
    28967.6495    0.179408D+02
    28970.6495    0.178489D+02
    28973.6495    0.177580D+02
    28976.6495    0.176682D+02
    28979.6495    0.175795D+02
    28982.6495    0.174918D+02
    28985.6495    0.174052D+02
    28988.6495    0.173196D+02
    28991.6495    0.172350D+02
    28994.6495    0.171515D+02
    28997.6495    0.170690D+02
    29000.6495    0.169876D+02
    29003.6495    0.169072D+02
    29006.6495    0.168279D+02
    29009.6495    0.167496D+02
    29012.6495    0.166724D+02
    29015.6495    0.165963D+02
    29018.6495    0.165212D+02
    29021.6495    0.164472D+02
    29024.6495    0.163743D+02
    29027.6495    0.163024D+02
    29030.6495    0.162315D+02
    29033.6495    0.161617D+02
    29036.6495    0.160929D+02
    29039.6495    0.160253D+02
    29042.6495    0.159587D+02
    29045.6495    0.158931D+02
    29048.6495    0.158285D+02
    29051.6495    0.157650D+02
    29054.6495    0.157025D+02
    29057.6495    0.156409D+02
    29060.6495    0.155804D+02
    29063.6495    0.155208D+02
    29066.6495    0.154622D+02
    29069.6495    0.154046D+02
    29072.6495    0.153478D+02
    29075.6495    0.152920D+02
    29078.6495    0.152371D+02
    29081.6495    0.151830D+02
    29084.6495    0.151298D+02
    29087.6495    0.150774D+02
    29090.6495    0.150258D+02
    29093.6495    0.149751D+02
    29096.6495    0.149250D+02
    29099.6495    0.148757D+02
    29102.6495    0.148271D+02
    29105.6495    0.147793D+02
    29108.6495    0.147320D+02
    29111.6495    0.146854D+02
    29114.6495    0.146395D+02
    29117.6495    0.145940D+02
    29120.6495    0.145492D+02
    29123.6495    0.145049D+02
    29126.6495    0.144612D+02
    29129.6495    0.144179D+02
    29132.6495    0.143752D+02
    29135.6495    0.143329D+02
    29138.6495    0.142911D+02
    29141.6495    0.142497D+02
    29144.6495    0.142087D+02
    29147.6495    0.141681D+02
    29150.6495    0.141280D+02
    29153.6495    0.140882D+02
    29156.6495    0.140488D+02
    29159.6495    0.140098D+02
    29162.6495    0.139712D+02
    29165.6495    0.139329D+02
    29168.6495    0.138950D+02
    29171.6495    0.138575D+02
    29174.6495    0.138203D+02
    29177.6495    0.137835D+02
    29180.6495    0.137470D+02
    29183.6495    0.137110D+02
    29186.6495    0.136752D+02
    29189.6495    0.136400D+02
    29192.6495    0.136051D+02
    29195.6495    0.135705D+02
    29198.6495    0.135365D+02
    29201.6495    0.135029D+02
    29204.6495    0.134697D+02
    29207.6495    0.134369D+02
    29210.6495    0.134046D+02
    29213.6495    0.133727D+02
    29216.6495    0.133414D+02
    29219.6495    0.133105D+02
    29222.6495    0.132801D+02
    29225.6495    0.132503D+02
    29228.6495    0.132209D+02
    29231.6495    0.131920D+02
    29234.6495    0.131637D+02
    29237.6495    0.131359D+02
    29240.6495    0.131086D+02
    29243.6495    0.130818D+02
    29246.6495    0.130555D+02
    29249.6495    0.130298D+02
    29252.6495    0.130046D+02
    29255.6495    0.129799D+02
    29258.6495    0.129558D+02
    29261.6495    0.129321D+02
    29264.6495    0.129089D+02
    29267.6495    0.128861D+02
    29270.6495    0.128638D+02
    29273.6495    0.128420D+02
    29276.6495    0.128205D+02
    29279.6495    0.127995D+02
    29282.6495    0.127789D+02
    29285.6495    0.127586D+02
    29288.6495    0.127386D+02
    29291.6495    0.127190D+02
    29294.6495    0.126996D+02
    29297.6495    0.126806D+02
    29300.6495    0.126617D+02
    29303.6495    0.126431D+02
    29306.6495    0.126246D+02
    29309.6495    0.126063D+02
    29312.6495    0.125882D+02
    29315.6495    0.125701D+02
    29318.6495    0.125521D+02
    29321.6495    0.125342D+02
    29324.6495    0.125163D+02
    29327.6495    0.124984D+02
    29330.6495    0.124804D+02
    29333.6495    0.124625D+02
    29336.6495    0.124444D+02
    29339.6495    0.124263D+02
    29342.6495    0.124080D+02
    29345.6495    0.123896D+02
    29348.6495    0.123711D+02
    29351.6495    0.123523D+02
    29354.6495    0.123335D+02
    29357.6495    0.123144D+02
    29360.6495    0.122951D+02
    29363.6495    0.122756D+02
    29366.6495    0.122559D+02
    29369.6495    0.122359D+02
    29372.6495    0.122157D+02
    29375.6495    0.121953D+02
    29378.6495    0.121746D+02
    29381.6495    0.121537D+02
    29384.6495    0.121325D+02
    29387.6495    0.121111D+02
    29390.6495    0.120894D+02
    29393.6495    0.120674D+02
    29396.6495    0.120453D+02
    29399.6495    0.120228D+02
    29402.6495    0.120002D+02
    29405.6495    0.119773D+02
    29408.6495    0.119541D+02
    29411.6495    0.119308D+02
    29414.6495    0.119072D+02
    29417.6495    0.118834D+02
    29420.6495    0.118595D+02
    29423.6495    0.118353D+02
    29426.6495    0.118109D+02
    29429.6495    0.117863D+02
    29432.6495    0.117616D+02
    29435.6495    0.117367D+02
    29438.6495    0.117116D+02
    29441.6495    0.116863D+02
    29444.6495    0.116609D+02
    29447.6495    0.116353D+02
    29450.6495    0.116095D+02
    29453.6495    0.115836D+02
    29456.6495    0.115576D+02
    29459.6495    0.115314D+02
    29462.6495    0.115050D+02
    29465.6495    0.114785D+02
    29468.6495    0.114519D+02
    29471.6495    0.114251D+02
    29474.6495    0.113981D+02
    29477.6495    0.113710D+02
    29480.6495    0.113437D+02
    29483.6495    0.113163D+02
    29486.6495    0.112887D+02
    29489.6495    0.112609D+02
    29492.6495    0.112329D+02
    29495.6495    0.112048D+02
    29498.6495    0.111764D+02
    29501.6495    0.111478D+02
    29504.6495    0.111191D+02
    29507.6495    0.110901D+02
    29510.6495    0.110608D+02
    29513.6495    0.110314D+02
    29516.6495    0.110017D+02
    29519.6495    0.109717D+02
    29522.6495    0.109415D+02
    29525.6495    0.109110D+02
    29528.6495    0.108802D+02
    29531.6495    0.108491D+02
    29534.6495    0.108177D+02
    29537.6495    0.107859D+02
    29540.6495    0.107539D+02
    29543.6495    0.107216D+02
    29546.6495    0.106889D+02
    29549.6495    0.106558D+02
    29552.6495    0.106224D+02
    29555.6495    0.105887D+02
    29558.6495    0.105545D+02
    29561.6495    0.105201D+02
    29564.6495    0.104853D+02
    29567.6495    0.104501D+02
    29570.6495    0.104145D+02
    29573.6495    0.103786D+02
    29576.6495    0.103423D+02
    29579.6495    0.103057D+02
    29582.6495    0.102687D+02
    29585.6495    0.102314D+02
    29588.6495    0.101937D+02
    29591.6495    0.101557D+02
    29594.6495    0.101173D+02
    29597.6495    0.100787D+02
    29600.6495    0.100397D+02
    29603.6495    0.100004D+02
    29606.6495    0.996087D+01
    29609.6495    0.992108D+01
    29612.6495    0.988101D+01
    29615.6495    0.984072D+01
    29618.6495    0.980021D+01
    29621.6495    0.975950D+01
    29624.6495    0.971860D+01
    29627.6495    0.967752D+01
    29630.6495    0.963630D+01
    29633.6495    0.959494D+01
    29636.6495    0.955347D+01
    29639.6495    0.951190D+01
    29642.6495    0.947023D+01
    29645.6495    0.942851D+01
    29648.6495    0.938674D+01
    29651.6495    0.934494D+01
    29654.6495    0.930309D+01
    29657.6495    0.926127D+01
    29660.6495    0.921943D+01
    29663.6495    0.917763D+01
    29666.6495    0.913585D+01
    29669.6495    0.909410D+01
    29672.6495    0.905241D+01
    29675.6495    0.901076D+01
    29678.6495    0.896918D+01
    29681.6495    0.892763D+01
    29684.6495    0.888618D+01
    29687.6495    0.884474D+01
    29690.6495    0.880342D+01
    29693.6495    0.876216D+01
    29696.6495    0.872095D+01
    29699.6495    0.867978D+01
    29702.6495    0.863866D+01
    29705.6495    0.859758D+01
    29708.6495    0.855651D+01
    29711.6495    0.851549D+01
    29714.6495    0.847450D+01
    29717.6495    0.843349D+01
    29720.6495    0.839249D+01
    29723.6495    0.835145D+01
    29726.6495    0.831040D+01
    29729.6495    0.826928D+01
    29732.6495    0.822811D+01
    29735.6495    0.818686D+01
    29738.6495    0.814551D+01
    29741.6495    0.810407D+01
    29744.6495    0.806252D+01
    29747.6495    0.802083D+01
    29750.6495    0.797902D+01
    29753.6495    0.793704D+01
    29756.6495    0.789490D+01
    29759.6495    0.785262D+01
    29762.6495    0.781014D+01
    29765.6495    0.776747D+01
    29768.6495    0.772462D+01
    29771.6495    0.768156D+01
    29774.6495    0.763832D+01
    29777.6495    0.759487D+01
    29780.6495    0.755123D+01
    29783.6495    0.750737D+01
    29786.6495    0.746330D+01
    29789.6495    0.741905D+01
    29792.6495    0.737457D+01
    29795.6495    0.732994D+01
    29798.6495    0.728513D+01
    29801.6495    0.724009D+01
    29804.6495    0.719493D+01
    29807.6495    0.714963D+01
    29810.6495    0.710418D+01
    29813.6495    0.705859D+01
    29816.6495    0.701290D+01
    29819.6495    0.696709D+01
    29822.6495    0.692122D+01
    29825.6495    0.687527D+01
    29828.6495    0.682927D+01
    29831.6495    0.678321D+01
    29834.6495    0.673715D+01
    29837.6495    0.669107D+01
    29840.6495    0.664501D+01
    29843.6495    0.659900D+01
    29846.6495    0.655301D+01
    29849.6495    0.650709D+01
    29852.6495    0.646126D+01
    29855.6495    0.641552D+01
    29858.6495    0.636988D+01
    29861.6495    0.632438D+01
    29864.6495    0.627902D+01
    29867.6495    0.623380D+01
    29870.6495    0.618878D+01
    29873.6495    0.614394D+01
    29876.6495    0.609929D+01
    29879.6495    0.605484D+01
    29882.6495    0.601061D+01
    29885.6495    0.596660D+01
    29888.6495    0.592282D+01
    29891.6495    0.587928D+01
    29894.6495    0.583600D+01
    29897.6495    0.579296D+01
    29900.6495    0.575017D+01
    29903.6495    0.570764D+01
    29906.6495    0.566538D+01
    29909.6495    0.562339D+01
    29912.6495    0.558165D+01
    29915.6495    0.554016D+01
    29918.6495    0.549897D+01
    29921.6495    0.545803D+01
    29924.6495    0.541736D+01
    29927.6495    0.537695D+01
    29930.6495    0.533680D+01
    29933.6495    0.529692D+01
    29936.6495    0.525728D+01
    29939.6495    0.521790D+01
    29942.6495    0.517873D+01
    29945.6495    0.513982D+01
    29948.6495    0.510116D+01
    29951.6495    0.506267D+01
    29954.6495    0.502446D+01
    29957.6495    0.498645D+01
    29960.6495    0.494867D+01
    29963.6495    0.491110D+01
    29966.6495    0.487373D+01
    29969.6495    0.483654D+01
    29972.6495    0.479958D+01
    29975.6495    0.476279D+01
    29978.6495    0.472618D+01
    29981.6495    0.468977D+01
    29984.6495    0.465354D+01
    29987.6495    0.461748D+01
    29990.6495    0.458158D+01
    29993.6495    0.454586D+01
    29996.6495    0.451030D+01
    29999.6495    0.447489D+01
    30002.6495    0.443965D+01
    30005.6495    0.440456D+01
    30008.6495    0.436964D+01
    30011.6495    0.433485D+01
    30014.6495    0.430022D+01
    30017.6495    0.426575D+01
    30020.6495    0.423143D+01
    30023.6495    0.419728D+01
    30026.6495    0.416327D+01
    30029.6495    0.412941D+01
    30032.6495    0.409570D+01
    30035.6495    0.406216D+01
    30038.6495    0.402876D+01
    30041.6495    0.399552D+01
    30044.6495    0.396245D+01
    30047.6495    0.392953D+01
    30050.6495    0.389678D+01
    30053.6495    0.386419D+01
    30056.6495    0.383176D+01
    30059.6495    0.379951D+01
    30062.6495    0.376741D+01
    30065.6495    0.373550D+01
    30068.6495    0.370377D+01
    30071.6495    0.367223D+01
    30074.6495    0.364084D+01
    30077.6495    0.360965D+01
    30080.6495    0.357865D+01
    30083.6495    0.354784D+01
    30086.6495    0.351721D+01
    30089.6495    0.348679D+01
    30092.6495    0.345655D+01
    30095.6495    0.342652D+01
    30098.6495    0.339668D+01
    30101.6495    0.336703D+01
    30104.6495    0.333761D+01
    30107.6495    0.330840D+01
    30110.6495    0.327936D+01
    30113.6495    0.325057D+01
    30116.6495    0.322199D+01
    30119.6495    0.319361D+01
    30122.6495    0.316546D+01
    30125.6495    0.313751D+01
    30128.6495    0.310978D+01
    30131.6495    0.308229D+01
    30134.6495    0.305501D+01
    30137.6495    0.302797D+01
    30140.6495    0.300115D+01
    30143.6495    0.297455D+01
    30146.6495    0.294818D+01
    30149.6495    0.292203D+01
    30152.6495    0.289611D+01
    30155.6495    0.287043D+01
    30158.6495    0.284497D+01
    30161.6495    0.281974D+01
    30164.6495    0.279474D+01
    30167.6495    0.276998D+01
    30170.6495    0.274543D+01
    30173.6495    0.272113D+01
    30176.6495    0.269706D+01
    30179.6495    0.267323D+01
    30182.6495    0.264962D+01
    30185.6495    0.262625D+01
    30188.6495    0.260310D+01
    30191.6495    0.258019D+01
    30194.6495    0.255752D+01
    30197.6495    0.253507D+01
    30200.6495    0.251286D+01
    30203.6495    0.249087D+01
    30206.6495    0.246911D+01
    30209.6495    0.244758D+01
    30212.6495    0.242627D+01
    30215.6495    0.240520D+01
    30218.6495    0.238436D+01
    30221.6495    0.236372D+01
    30224.6495    0.234332D+01
    30227.6495    0.232315D+01
    30230.6495    0.230320D+01
    30233.6495    0.228346D+01
    30236.6495    0.226395D+01
 -----------------------------


 ----------------------------------------------------------------------

 Electric dipole moment (input orientation):
 (Debye = 10**-18 statcoulomb cm , SI units = C m)
                  (au)            (Debye)         (10**-30 SI)
   Tot        0.402570D+01      0.102323D+02      0.341313D+02
   x         -0.141892D+01     -0.360653D+01     -0.120301D+02
   y          0.376644D+01      0.957333D+01      0.319332D+02
   z         -0.827360D-01     -0.210294D+00     -0.701465D+00

 Dipole polarizability, Alpha (input orientation).
 (esu units = cm**3 , SI units = C**2 m**2 J**-1)
 Alpha(0;0):
               (au)            (10**-24 esu)      (10**-40 SI)
   iso        0.368112D+03      0.545486D+02      0.606935D+02
   aniso      0.439067D+03      0.650630D+02      0.723924D+02
   xx         0.308563D+03      0.457244D+02      0.508752D+02
   yx        -0.418812D+02     -0.620615D+01     -0.690528D+01
   yy         0.642450D+03      0.952013D+02      0.105926D+03
   zx         0.580295D+01      0.859909D+00      0.956778D+00
   zy        -0.116208D+01     -0.172203D+00     -0.191602D+00
   zz         0.153323D+03      0.227201D+02      0.252795D+02

 ----------------------------------------------------------------------

 Dipole oientation:
     8          2.25071505          0.72002259         -1.07793869
     8          1.66725277          0.55291337         -9.88613454
     7          3.02738481          0.96085635          7.89967376
     7         -2.77731069         -0.84587205         -0.73805993
     6          1.61215627          0.52363305          5.78037425
     6          1.16899133          0.37545331          1.24031386
     6         -1.74221774         -0.52191804         -2.93046291
     6         -1.35542349         -0.40312253          1.39154670
     6          1.93612196          0.88378413         10.43011997
     6          5.71592070          1.54925942          7.75425368
     6          2.64140148          0.84224102          3.34092270
     6         -3.18357113         -0.97121661         -5.26082730
     6          0.88322476          0.29866812         -3.20932604
     6         -0.95251726         -0.27482991          5.95233488
     6         -2.03058335         -0.60882230         -7.62332703
     6         -2.37298191         -0.71387858          3.81901172
     6          2.01041867          0.65512727         -5.47071080
     6          0.65177768          0.23262903         -7.81547353
     6          1.96095832         -1.74549617         11.62129858
     6          6.26805154          4.36541484          7.43912745
     6         -5.70620235         -1.76076636         -5.15519829
     6         -3.40526154         -1.03912620         -9.83557373
     6         -7.05095792         -2.18126022         -7.36206052
     6         -5.90133150         -1.82087985         -9.71316000
     1          3.02710292          2.19132291         11.60363578
     1          0.01716993          1.64741446         10.37633129
     1          6.58881543          0.85831334          9.49718760
     1          6.57414407          0.45670946          6.22442404
     1          4.55707872          1.48669021          3.03855519
     1         -1.81460381         -0.58474612          7.77926866
     1         -4.32289866         -1.33125394          3.97660454
     1          3.96307015          1.26515286         -5.58425753
     1          3.89340515         -2.47056142         11.76280249
     1          0.86012692         -3.09049738         10.50229596
     1          1.15997256         -1.67867131         13.52841360
     1          5.43591625          5.10867862          5.69915251
     1          5.49539471          5.44687061          9.02465102
     1          8.31004000          4.69450679          7.37307250
     1         -6.58090100         -2.03477185         -3.32321774
     1         -2.46730660         -0.74554602        -11.63430780
     1         -9.00696898         -2.79358194         -7.25966397
     1         -6.96088452         -2.15258944        -11.43857990

 Electric dipole moment (dipole orientation):
 (Debye = 10**-18 statcoulomb cm , SI units = C m)
                  (au)            (Debye)         (10**-30 SI)
   Tot        0.402570D+01      0.102323D+02      0.341313D+02
   x          0.000000D+00      0.000000D+00      0.000000D+00
   y          0.000000D+00      0.000000D+00      0.000000D+00
   z          0.402570D+01      0.102323D+02      0.341313D+02

 Dipole polarizability, Alpha (dipole orientation).
 (esu units = cm**3 , SI units = C**2 m**2 J**-1)
 Alpha(0;0):
               (au)            (10**-24 esu)      (10**-40 SI)
   iso        0.368112D+03      0.545486D+02      0.606935D+02
   aniso      0.439067D+03      0.650630D+02      0.723924D+02
   xx         0.305797D+03      0.453145D+02      0.504192D+02
   yx         0.507774D+02      0.752444D+01      0.837207D+01
   yy         0.170024D+03      0.251949D+02      0.280331D+02
   zx         0.758556D+02      0.112406D+02      0.125069D+02
   zy         0.214867D+02      0.318400D+01      0.354267D+01
   zz         0.628515D+03      0.931363D+02      0.103628D+03

 ----------------------------------------------------------------------

 This type of calculation cannot be archived.


 ABALONE: AN EXPRESSION OF DISBELIEF.
 Job cpu time:       0 days  0 hours 11 minutes 60.0 seconds.
 Elapsed time:       0 days  0 hours  1 minutes  0.2 seconds.
 File lengths (MBytes):  RWF=     10 Int=      0 D2E=      0 Chk=     63 Scr=      1
 Normal termination of Gaussian DV at Sat Feb 15 08:42:58 2020.
