************************************************************
This is node03.cluster of cluster Pinconning.
Date: Thu Feb  6 07:03:02 PST 2020
************************************************************
 Set GAUSS_MDEF to "32GB".
 Set GAUSS_PDEF to "12".
 Entering Gaussian System, Link 0=gdv
 Initial command:
 /opt/gaussian/gdv-20170407-i10+/gdv/local/l1.exe "/tmp/709297.1.allnodes.q/Gau-24641.inp" -scrdir="/tmp/709297.1.allnodes.q/"
 Default is to use a total of  12 processors:
                               12 via shared-memory
                                1 via Linda
 Entering Link 1 = /opt/gaussian/gdv-20170407-i10+/gdv/local/l1.exe PID=     24642.
  
 Copyright (c) 1988-2017, Gaussian, Inc.  All Rights Reserved.
  
 This is the private, development version of
 the Gaussian(R) DV system of programs. It is based on
 the Gaussian(R) 16 system (copyright 2016, Gaussian, Inc.),
 the Gaussian(R) 09 system (copyright 2009, Gaussian, Inc.),
 the Gaussian(R) 03 system (copyright 2003, Gaussian, Inc.),
 the Gaussian(R) 98 system (copyright 1998, Gaussian, Inc.),
 the Gaussian(R) 94 system (copyright 1995, Gaussian, Inc.),
 the Gaussian 92(TM) system (copyright 1992, Gaussian, Inc.),
 the Gaussian 90(TM) system (copyright 1990, Gaussian, Inc.),
 the Gaussian 88(TM) system (copyright 1988, Gaussian, Inc.),
 the Gaussian 86(TM) system (copyright 1986, Carnegie Mellon
 University), and the Gaussian 82(TM) system (copyright 1983,
 Carnegie Mellon University). Gaussian is a federally registered
 trademark of Gaussian, Inc.
  
 This software contains proprietary and confidential information,
 including trade secrets, belonging to Gaussian, Inc.
  
 This software is provided under written license and may be
 used, copied, transmitted, or stored only in accord with that
 written license.
  
 The following legend is applicable only to US Government
 contracts under FAR:
  
                    RESTRICTED RIGHTS LEGEND
  
 Use, reproduction and disclosure by the US Government is
 subject to restrictions as set forth in subparagraphs (a)
 and (c) of the Commercial Computer Software - Restricted
 Rights clause in FAR 52.227-19.
  
 Gaussian, Inc.
 340 Quinnipiac St., Bldg. 40, Wallingford CT 06492
  
  
 ---------------------------------------------------------------
 Warning -- This program may not be used in any manner that
 competes with the business of Gaussian, Inc. or will provide
 assistance to any competitor of Gaussian, Inc.  The licensee
 of this program is prohibited from giving any competitor of
 Gaussian, Inc. access to this program.  By using this program,
 the user acknowledges that Gaussian, Inc. is engaged in the
 business of creating and licensing software in the field of
 computational chemistry and represents and warrants to the
 licensee that it is not a competitor of Gaussian, Inc. and that
 it will not use this program in any manner prohibited above.
 ---------------------------------------------------------------
  

 Cite this work as:
 Gaussian Development Version, Revision I.10+,
 M. J. Frisch, G. W. Trucks, H. B. Schlegel, G. E. Scuseria, 
 M. A. Robb, J. R. Cheeseman, G. Scalmani, V. Barone, 
 G. A. Petersson, H. Nakatsuji, X. Li, M. Caricato, A. V. Marenich, 
 J. Bloino, B. G. Janesko, R. Gomperts, B. Mennucci, H. P. Hratchian, 
 J. V. Ortiz, A. F. Izmaylov, J. L. Sonnenberg, D. Williams-Young, 
 F. Ding, F. Lipparini, F. Egidi, J. Goings, B. Peng, A. Petrone, 
 T. Henderson, D. Ranasinghe, V. G. Zakrzewski, J. Gao, N. Rega, 
 G. Zheng, W. Liang, M. Hada, M. Ehara, K. Toyota, R. Fukuda, 
 J. Hasegawa, M. Ishida, T. Nakajima, Y. Honda, O. Kitao, H. Nakai, 
 T. Vreven, K. Throssell, J. A. Montgomery, Jr., J. E. Peralta, 
 F. Ogliaro, M. J. Bearpark, J. J. Heyd, E. N. Brothers, K. N. Kudin, 
 V. N. Staroverov, T. A. Keith, R. Kobayashi, J. Normand, 
 K. Raghavachari, A. P. Rendell, J. C. Burant, S. S. Iyengar, 
 J. Tomasi, M. Cossi, J. M. Millam, M. Klene, C. Adamo, R. Cammi, 
 J. W. Ochterski, R. L. Martin, K. Morokuma, O. Farkas, 
 J. B. Foresman, and D. J. Fox, Gaussian, Inc., Wallingford CT, 2016.
 
 *******************************************
 Gaussian DV:  ES64L-GDVRevI.10+ 27-Mar-2017
                  6-Feb-2020 
 *******************************************
 %chk=nile_red_gs
 ----------------------------------------------------------------------
 # CAM-B3LYP/6-31+G* Geom=AllCheck opt=tight freq=(saveNM,HPModes) SCRF
 (Solvent=Benzene)
 ----------------------------------------------------------------------
 1/7=10,18=20,19=15,26=3,29=7,38=1/1,3;
 2/9=110,12=2,40=1/2;
 3/5=1,6=6,7=11,11=2,14=-4,25=1,30=1,70=2201,71=1,72=12,74=-40/1,2,3;
 4//1;
 5/5=2,38=5,53=12/2;
 6/7=2,8=2,9=2,10=2,28=1/1;
 7/92=1/1,2,3,16;
 1/7=10,18=20,19=15,26=3/3(2);
 2/9=110/2;
 99//99;
 2/9=110/2;
 3/5=1,6=6,7=11,11=2,14=-2,25=1,30=1,70=2205,71=1,72=12,74=-40/1,2,3;
 4/5=5,16=3,69=1/1;
 5/5=2,38=5,53=12/2;
 7/92=1/1,2,3,16;
 1/7=10,18=20,19=15,26=3/3(-5);
 2/9=110/2;
 6/7=2,8=2,9=2,10=2,19=2,28=1/1;
 99/9=1/99;
 Structure from the checkpoint file:  "nile_red_gs.chk"
 --------------------------
 pCT- Geometry Optimization
 --------------------------
 Charge =  0 Multiplicity = 1
 Redundant internal coordinates found in file.  (old form).
 O,0,1.3612735176,-0.0887973981,0.0700638039
 O,0,2.7469494601,-4.5508601396,0.1489819804
 N,0,0.0958236383,4.5009751943,0.0015100151
 N,0,-1.3585868103,-0.8982567266,-0.0984240388
 C,0,-0.2422355332,3.1742244015,-0.0252798357
 C,0,0.3683424428,0.8338495622,0.015854725
 C,0,-0.3565316766,-1.7950765037,-0.0374145114
 C,0,-0.9897588946,0.4063648921,-0.0722979796
 C,0,-0.8877266312,5.5603547658,-0.1893759774
 C,0,1.4703521192,4.9347252091,0.2167396922
 C,0,0.7366456028,2.1626934187,0.0364686435
 C,0,-0.6447229661,-3.2102187062,-0.055696174
 C,0,1.021889537,-1.4172291321,0.0465814185
 C,0,-1.6120323976,2.7633061392,-0.1101678564
 C,0,0.3984240181,-4.1654250155,0.0073126915
 C,0,-1.9595482973,1.437074701,-0.1329107668
 C,0,2.0540228916,-2.3069256001,0.1087923073
 C,0,1.8131366231,-3.7447088326,0.0932775873
 C,0,-1.5610357476,6.0074990186,1.10819844
 C,0,2.2899524691,5.0241326465,-1.0712705396
 C,0,-1.9767860966,-3.6604984741,-0.1369550354
 C,0,0.0902017521,-5.5276887234,-0.0120606857
 C,0,-2.2610238972,-5.0160498126,-0.1547232893
 C,0,-1.2273250924,-5.9574722095,-0.092345387
 H,0,-0.3643752969,6.4073108515,-0.6446123142
 H,0,-1.631427759,5.238990928,-0.9231386058
 H,0,1.4286629468,5.9175996091,0.696944864
 H,0,1.9500469979,4.265996565,0.93685201
 H,0,1.7947079946,2.384328898,0.079200798
 H,0,-2.4004828,3.5038543833,-0.1376559561
 H,0,-3.0008715069,1.1371684377,-0.1912643579
 H,0,3.0792011338,-1.9584705537,0.1713379811
 H,0,-0.8210737834,6.3751420626,1.8261708951
 H,0,-2.1039931858,5.182995075,1.5788373183
 H,0,-2.270160109,6.817601986,0.9072746489
 H,0,2.3538373503,4.0538682659,-1.5712826547
 H,0,1.8404077762,5.7351349612,-1.7717661073
 H,0,3.3068921041,5.3641901839,-0.8487455095
 H,0,-2.7692040762,-2.9219494026,-0.1849601046
 H,0,0.9127235145,-6.2340375817,0.0375342212
 H,0,-3.2937533782,-5.3474358376,-0.2176892131
 H,0,-1.4538508472,-7.0193944065,-0.1066798654
 Recover connectivity data from disk.

 GradGradGradGradGradGradGradGradGradGradGradGradGradGradGradGradGradGrad
 Berny optimization.
 Initialization pass.
                           ----------------------------
                           !    Initial Parameters    !
                           ! (Angstroms and Degrees)  !
 --------------------------                            --------------------------
 ! Name  Definition              Value          Derivative Info.                !
 --------------------------------------------------------------------------------
 ! R1    R(1,6)                  1.3565         estimate D2E/DX2                !
 ! R2    R(1,13)                 1.3713         estimate D2E/DX2                !
 ! R3    R(2,18)                 1.2349         estimate D2E/DX2                !
 ! R4    R(3,5)                  1.3694         estimate D2E/DX2                !
 ! R5    R(3,9)                  1.4581         estimate D2E/DX2                !
 ! R6    R(3,10)                 1.4573         estimate D2E/DX2                !
 ! R7    R(4,7)                  1.3462         estimate D2E/DX2                !
 ! R8    R(4,8)                  1.356          estimate D2E/DX2                !
 ! R9    R(5,11)                 1.409          estimate D2E/DX2                !
 ! R10   R(5,14)                 1.4326         estimate D2E/DX2                !
 ! R11   R(6,8)                  1.4265         estimate D2E/DX2                !
 ! R12   R(6,11)                 1.3791         estimate D2E/DX2                !
 ! R13   R(7,12)                 1.4443         estimate D2E/DX2                !
 ! R14   R(7,13)                 1.4317         estimate D2E/DX2                !
 ! R15   R(8,16)                 1.4165         estimate D2E/DX2                !
 ! R16   R(9,19)                 1.5287         estimate D2E/DX2                !
 ! R17   R(9,25)                 1.0947         estimate D2E/DX2                !
 ! R18   R(9,26)                 1.0931         estimate D2E/DX2                !
 ! R19   R(10,20)                1.5293         estimate D2E/DX2                !
 ! R20   R(10,27)                1.0947         estimate D2E/DX2                !
 ! R21   R(10,28)                1.0936         estimate D2E/DX2                !
 ! R22   R(11,29)                1.0819         estimate D2E/DX2                !
 ! R23   R(12,15)                1.4158         estimate D2E/DX2                !
 ! R24   R(12,21)                1.4085         estimate D2E/DX2                !
 ! R25   R(13,17)                1.3641         estimate D2E/DX2                !
 ! R26   R(14,16)                1.3712         estimate D2E/DX2                !
 ! R27   R(14,30)                1.082          estimate D2E/DX2                !
 ! R28   R(15,18)                1.4784         estimate D2E/DX2                !
 ! R29   R(15,22)                1.3968         estimate D2E/DX2                !
 ! R30   R(16,31)                1.0852         estimate D2E/DX2                !
 ! R31   R(17,18)                1.4579         estimate D2E/DX2                !
 ! R32   R(17,32)                1.0846         estimate D2E/DX2                !
 ! R33   R(19,33)                1.0946         estimate D2E/DX2                !
 ! R34   R(19,34)                1.0937         estimate D2E/DX2                !
 ! R35   R(19,35)                1.0952         estimate D2E/DX2                !
 ! R36   R(20,36)                1.0934         estimate D2E/DX2                !
 ! R37   R(20,37)                1.0947         estimate D2E/DX2                !
 ! R38   R(20,38)                1.0951         estimate D2E/DX2                !
 ! R39   R(21,23)                1.3851         estimate D2E/DX2                !
 ! R40   R(21,39)                1.0843         estimate D2E/DX2                !
 ! R41   R(22,24)                1.3882         estimate D2E/DX2                !
 ! R42   R(22,40)                1.0853         estimate D2E/DX2                !
 ! R43   R(23,24)                1.3995         estimate D2E/DX2                !
 ! R44   R(23,41)                1.0864         estimate D2E/DX2                !
 ! R45   R(24,42)                1.0859         estimate D2E/DX2                !
 ! A1    A(6,1,13)             118.4934         estimate D2E/DX2                !
 ! A2    A(5,3,9)              122.3324         estimate D2E/DX2                !
 ! A3    A(5,3,10)             121.6073         estimate D2E/DX2                !
 ! A4    A(9,3,10)             116.0595         estimate D2E/DX2                !
 ! A5    A(7,4,8)              115.9523         estimate D2E/DX2                !
 ! A6    A(3,5,11)             121.5465         estimate D2E/DX2                !
 ! A7    A(3,5,14)             121.0038         estimate D2E/DX2                !
 ! A8    A(11,5,14)            117.4488         estimate D2E/DX2                !
 ! A9    A(1,6,8)              119.7036         estimate D2E/DX2                !
 ! A10   A(1,6,11)             117.3419         estimate D2E/DX2                !
 ! A11   A(8,6,11)             122.9515         estimate D2E/DX2                !
 ! A12   A(4,7,12)             120.242          estimate D2E/DX2                !
 ! A13   A(4,7,13)             122.9226         estimate D2E/DX2                !
 ! A14   A(12,7,13)            116.8354         estimate D2E/DX2                !
 ! A15   A(4,8,6)              123.2611         estimate D2E/DX2                !
 ! A16   A(4,8,16)             120.8653         estimate D2E/DX2                !
 ! A17   A(6,8,16)             115.8736         estimate D2E/DX2                !
 ! A18   A(3,9,19)             113.4835         estimate D2E/DX2                !
 ! A19   A(3,9,25)             107.1014         estimate D2E/DX2                !
 ! A20   A(3,9,26)             109.4643         estimate D2E/DX2                !
 ! A21   A(19,9,25)            109.708          estimate D2E/DX2                !
 ! A22   A(19,9,26)            110.862          estimate D2E/DX2                !
 ! A23   A(25,9,26)            105.877          estimate D2E/DX2                !
 ! A24   A(3,10,20)            113.4846         estimate D2E/DX2                !
 ! A25   A(3,10,27)            107.2233         estimate D2E/DX2                !
 ! A26   A(3,10,28)            109.2068         estimate D2E/DX2                !
 ! A27   A(20,10,27)           109.7169         estimate D2E/DX2                !
 ! A28   A(20,10,28)           110.8102         estimate D2E/DX2                !
 ! A29   A(27,10,28)           106.0748         estimate D2E/DX2                !
 ! A30   A(5,11,6)             120.3689         estimate D2E/DX2                !
 ! A31   A(5,11,29)            122.2838         estimate D2E/DX2                !
 ! A32   A(6,11,29)            117.3338         estimate D2E/DX2                !
 ! A33   A(7,12,15)            120.895          estimate D2E/DX2                !
 ! A34   A(7,12,21)            120.1779         estimate D2E/DX2                !
 ! A35   A(15,12,21)           118.9271         estimate D2E/DX2                !
 ! A36   A(1,13,7)             119.6656         estimate D2E/DX2                !
 ! A37   A(1,13,17)            116.3463         estimate D2E/DX2                !
 ! A38   A(7,13,17)            123.988          estimate D2E/DX2                !
 ! A39   A(5,14,16)            121.3814         estimate D2E/DX2                !
 ! A40   A(5,14,30)            120.1266         estimate D2E/DX2                !
 ! A41   A(16,14,30)           118.4805         estimate D2E/DX2                !
 ! A42   A(12,15,18)           121.0388         estimate D2E/DX2                !
 ! A43   A(12,15,22)           119.655          estimate D2E/DX2                !
 ! A44   A(18,15,22)           119.3062         estimate D2E/DX2                !
 ! A45   A(8,16,14)            121.9753         estimate D2E/DX2                !
 ! A46   A(8,16,31)            117.2678         estimate D2E/DX2                !
 ! A47   A(14,16,31)           120.7554         estimate D2E/DX2                !
 ! A48   A(13,17,18)           121.1796         estimate D2E/DX2                !
 ! A49   A(13,17,32)           120.5498         estimate D2E/DX2                !
 ! A50   A(18,17,32)           118.2706         estimate D2E/DX2                !
 ! A51   A(2,18,15)            122.7137         estimate D2E/DX2                !
 ! A52   A(2,18,17)            121.2231         estimate D2E/DX2                !
 ! A53   A(15,18,17)           116.0632         estimate D2E/DX2                !
 ! A54   A(9,19,33)            110.9307         estimate D2E/DX2                !
 ! A55   A(9,19,34)            111.31           estimate D2E/DX2                !
 ! A56   A(9,19,35)            110.2312         estimate D2E/DX2                !
 ! A57   A(33,19,34)           107.8514         estimate D2E/DX2                !
 ! A58   A(33,19,35)           108.0348         estimate D2E/DX2                !
 ! A59   A(34,19,35)           108.3691         estimate D2E/DX2                !
 ! A60   A(10,20,36)           111.3823         estimate D2E/DX2                !
 ! A61   A(10,20,37)           110.906          estimate D2E/DX2                !
 ! A62   A(10,20,38)           110.1627         estimate D2E/DX2                !
 ! A63   A(36,20,37)           107.9224         estimate D2E/DX2                !
 ! A64   A(36,20,38)           108.3134         estimate D2E/DX2                !
 ! A65   A(37,20,38)           108.0403         estimate D2E/DX2                !
 ! A66   A(12,21,23)           120.5095         estimate D2E/DX2                !
 ! A67   A(12,21,39)           118.4229         estimate D2E/DX2                !
 ! A68   A(23,21,39)           121.0676         estimate D2E/DX2                !
 ! A69   A(15,22,24)           120.8085         estimate D2E/DX2                !
 ! A70   A(15,22,40)           117.8301         estimate D2E/DX2                !
 ! A71   A(24,22,40)           121.3614         estimate D2E/DX2                !
 ! A72   A(21,23,24)           120.4084         estimate D2E/DX2                !
 ! A73   A(21,23,41)           119.6246         estimate D2E/DX2                !
 ! A74   A(24,23,41)           119.967          estimate D2E/DX2                !
 ! A75   A(22,24,23)           119.6914         estimate D2E/DX2                !
 ! A76   A(22,24,42)           120.1003         estimate D2E/DX2                !
 ! A77   A(23,24,42)           120.2083         estimate D2E/DX2                !
 ! D1    D(13,1,6,8)            -0.4116         estimate D2E/DX2                !
 ! D2    D(13,1,6,11)         -179.7885         estimate D2E/DX2                !
 ! D3    D(6,1,13,7)             0.1721         estimate D2E/DX2                !
 ! D4    D(6,1,13,17)         -179.7355         estimate D2E/DX2                !
 ! D5    D(9,3,5,11)           174.004          estimate D2E/DX2                !
 ! D6    D(9,3,5,14)            -6.344          estimate D2E/DX2                !
 ! D7    D(10,3,5,11)           -5.6507         estimate D2E/DX2                !
 ! D8    D(10,3,5,14)          174.0013         estimate D2E/DX2                !
 ! D9    D(5,3,9,19)            88.3836         estimate D2E/DX2                !
 ! D10   D(5,3,9,25)          -150.3941         estimate D2E/DX2                !
 ! D11   D(5,3,9,26)           -36.0439         estimate D2E/DX2                !
 ! D12   D(10,3,9,19)          -91.9438         estimate D2E/DX2                !
 ! D13   D(10,3,9,25)           29.2785         estimate D2E/DX2                !
 ! D14   D(10,3,9,26)          143.6287         estimate D2E/DX2                !
 ! D15   D(5,3,10,20)           87.3304         estimate D2E/DX2                !
 ! D16   D(5,3,10,27)         -151.3506         estimate D2E/DX2                !
 ! D17   D(5,3,10,28)          -36.8331         estimate D2E/DX2                !
 ! D18   D(9,3,10,20)          -92.3449         estimate D2E/DX2                !
 ! D19   D(9,3,10,27)           28.9742         estimate D2E/DX2                !
 ! D20   D(9,3,10,28)          143.4917         estimate D2E/DX2                !
 ! D21   D(8,4,7,12)           179.8616         estimate D2E/DX2                !
 ! D22   D(8,4,7,13)            -0.1687         estimate D2E/DX2                !
 ! D23   D(7,4,8,6)             -0.0852         estimate D2E/DX2                !
 ! D24   D(7,4,8,16)           179.9091         estimate D2E/DX2                !
 ! D25   D(3,5,11,6)           179.6064         estimate D2E/DX2                !
 ! D26   D(3,5,11,29)           -1.7691         estimate D2E/DX2                !
 ! D27   D(14,5,11,6)           -0.0575         estimate D2E/DX2                !
 ! D28   D(14,5,11,29)         178.567          estimate D2E/DX2                !
 ! D29   D(3,5,14,16)         -179.7744         estimate D2E/DX2                !
 ! D30   D(3,5,14,30)           -1.0216         estimate D2E/DX2                !
 ! D31   D(11,5,14,16)          -0.1086         estimate D2E/DX2                !
 ! D32   D(11,5,14,30)         178.6442         estimate D2E/DX2                !
 ! D33   D(1,6,8,4)              0.3867         estimate D2E/DX2                !
 ! D34   D(1,6,8,16)          -179.6078         estimate D2E/DX2                !
 ! D35   D(11,6,8,4)           179.7271         estimate D2E/DX2                !
 ! D36   D(11,6,8,16)           -0.2674         estimate D2E/DX2                !
 ! D37   D(1,6,11,5)           179.6076         estimate D2E/DX2                !
 ! D38   D(1,6,11,29)            0.9166         estimate D2E/DX2                !
 ! D39   D(8,6,11,5)             0.2526         estimate D2E/DX2                !
 ! D40   D(8,6,11,29)         -178.4384         estimate D2E/DX2                !
 ! D41   D(4,7,12,15)          179.9768         estimate D2E/DX2                !
 ! D42   D(4,7,12,21)           -0.0265         estimate D2E/DX2                !
 ! D43   D(13,7,12,15)           0.0053         estimate D2E/DX2                !
 ! D44   D(13,7,12,21)        -179.998          estimate D2E/DX2                !
 ! D45   D(4,7,13,1)             0.1318         estimate D2E/DX2                !
 ! D46   D(4,7,13,17)         -179.9681         estimate D2E/DX2                !
 ! D47   D(12,7,13,1)         -179.8975         estimate D2E/DX2                !
 ! D48   D(12,7,13,17)           0.0026         estimate D2E/DX2                !
 ! D49   D(4,8,16,14)         -179.8993         estimate D2E/DX2                !
 ! D50   D(4,8,16,31)            0.55           estimate D2E/DX2                !
 ! D51   D(6,8,16,14)            0.0954         estimate D2E/DX2                !
 ! D52   D(6,8,16,31)         -179.4553         estimate D2E/DX2                !
 ! D53   D(3,9,19,33)           59.0796         estimate D2E/DX2                !
 ! D54   D(3,9,19,34)          -61.0191         estimate D2E/DX2                !
 ! D55   D(3,9,19,35)          178.698          estimate D2E/DX2                !
 ! D56   D(25,9,19,33)         -60.6692         estimate D2E/DX2                !
 ! D57   D(25,9,19,34)         179.2321         estimate D2E/DX2                !
 ! D58   D(25,9,19,35)          58.9492         estimate D2E/DX2                !
 ! D59   D(26,9,19,33)        -177.2524         estimate D2E/DX2                !
 ! D60   D(26,9,19,34)          62.6489         estimate D2E/DX2                !
 ! D61   D(26,9,19,35)         -57.6341         estimate D2E/DX2                !
 ! D62   D(3,10,20,36)         -60.4006         estimate D2E/DX2                !
 ! D63   D(3,10,20,37)          59.8198         estimate D2E/DX2                !
 ! D64   D(3,10,20,38)         179.3849         estimate D2E/DX2                !
 ! D65   D(27,10,20,36)        179.688          estimate D2E/DX2                !
 ! D66   D(27,10,20,37)        -60.0916         estimate D2E/DX2                !
 ! D67   D(27,10,20,38)         59.4735         estimate D2E/DX2                !
 ! D68   D(28,10,20,36)         62.8882         estimate D2E/DX2                !
 ! D69   D(28,10,20,37)       -176.8914         estimate D2E/DX2                !
 ! D70   D(28,10,20,38)        -57.3263         estimate D2E/DX2                !
 ! D71   D(7,12,15,18)          -0.0172         estimate D2E/DX2                !
 ! D72   D(7,12,15,22)         179.9953         estimate D2E/DX2                !
 ! D73   D(21,12,15,18)        179.9861         estimate D2E/DX2                !
 ! D74   D(21,12,15,22)         -0.0014         estimate D2E/DX2                !
 ! D75   D(7,12,21,23)        -179.9884         estimate D2E/DX2                !
 ! D76   D(7,12,21,39)           0.0121         estimate D2E/DX2                !
 ! D77   D(15,12,21,23)          0.0083         estimate D2E/DX2                !
 ! D78   D(15,12,21,39)       -179.9912         estimate D2E/DX2                !
 ! D79   D(1,13,17,18)         179.9048         estimate D2E/DX2                !
 ! D80   D(1,13,17,32)          -0.0947         estimate D2E/DX2                !
 ! D81   D(7,13,17,18)           0.0017         estimate D2E/DX2                !
 ! D82   D(7,13,17,32)        -179.9978         estimate D2E/DX2                !
 ! D83   D(5,14,16,8)            0.0866         estimate D2E/DX2                !
 ! D84   D(5,14,16,31)         179.6219         estimate D2E/DX2                !
 ! D85   D(30,14,16,8)        -178.6862         estimate D2E/DX2                !
 ! D86   D(30,14,16,31)          0.8491         estimate D2E/DX2                !
 ! D87   D(12,15,18,2)        -179.9606         estimate D2E/DX2                !
 ! D88   D(12,15,18,17)          0.0205         estimate D2E/DX2                !
 ! D89   D(22,15,18,2)           0.0269         estimate D2E/DX2                !
 ! D90   D(22,15,18,17)       -179.9919         estimate D2E/DX2                !
 ! D91   D(12,15,22,24)         -0.0024         estimate D2E/DX2                !
 ! D92   D(12,15,22,40)        179.9935         estimate D2E/DX2                !
 ! D93   D(18,15,22,24)       -179.9901         estimate D2E/DX2                !
 ! D94   D(18,15,22,40)          0.0058         estimate D2E/DX2                !
 ! D95   D(13,17,18,2)         179.9686         estimate D2E/DX2                !
 ! D96   D(13,17,18,15)         -0.0128         estimate D2E/DX2                !
 ! D97   D(32,17,18,2)          -0.0319         estimate D2E/DX2                !
 ! D98   D(32,17,18,15)        179.9867         estimate D2E/DX2                !
 ! D99   D(12,21,23,24)         -0.0114         estimate D2E/DX2                !
 ! D100  D(12,21,23,41)        179.9984         estimate D2E/DX2                !
 ! D101  D(39,21,23,24)        179.9881         estimate D2E/DX2                !
 ! D102  D(39,21,23,41)         -0.0022         estimate D2E/DX2                !
 ! D103  D(15,22,24,23)         -0.0006         estimate D2E/DX2                !
 ! D104  D(15,22,24,42)        179.9959         estimate D2E/DX2                !
 ! D105  D(40,22,24,23)       -179.9963         estimate D2E/DX2                !
 ! D106  D(40,22,24,42)          0.0002         estimate D2E/DX2                !
 ! D107  D(21,23,24,22)          0.0075         estimate D2E/DX2                !
 ! D108  D(21,23,24,42)       -179.989          estimate D2E/DX2                !
 ! D109  D(41,23,24,22)        179.9977         estimate D2E/DX2                !
 ! D110  D(41,23,24,42)          0.0012         estimate D2E/DX2                !
 --------------------------------------------------------------------------------
 Trust Radius=3.00D-01 FncErr=1.00D-07 GrdErr=1.00D-06 EigMax=2.50D+02 EigMin=1.00D-04
 Number of steps in this run=    242 maximum allowed number of steps=    252.
 GradGradGradGradGradGradGradGradGradGradGradGradGradGradGradGradGradGrad

                          Input orientation:                          
 ---------------------------------------------------------------------
 Center     Atomic      Atomic             Coordinates (Angstroms)
 Number     Number       Type             X           Y           Z
 ---------------------------------------------------------------------
      1          8           0        1.361274   -0.088797    0.070064
      2          8           0        2.746949   -4.550860    0.148982
      3          7           0        0.095824    4.500975    0.001510
      4          7           0       -1.358587   -0.898257   -0.098424
      5          6           0       -0.242236    3.174224   -0.025280
      6          6           0        0.368342    0.833850    0.015855
      7          6           0       -0.356532   -1.795077   -0.037415
      8          6           0       -0.989759    0.406365   -0.072298
      9          6           0       -0.887727    5.560355   -0.189376
     10          6           0        1.470352    4.934725    0.216740
     11          6           0        0.736646    2.162693    0.036469
     12          6           0       -0.644723   -3.210219   -0.055696
     13          6           0        1.021890   -1.417229    0.046581
     14          6           0       -1.612032    2.763306   -0.110168
     15          6           0        0.398424   -4.165425    0.007313
     16          6           0       -1.959548    1.437075   -0.132911
     17          6           0        2.054023   -2.306926    0.108792
     18          6           0        1.813137   -3.744709    0.093278
     19          6           0       -1.561036    6.007499    1.108198
     20          6           0        2.289952    5.024133   -1.071271
     21          6           0       -1.976786   -3.660498   -0.136955
     22          6           0        0.090202   -5.527689   -0.012061
     23          6           0       -2.261024   -5.016050   -0.154723
     24          6           0       -1.227325   -5.957472   -0.092345
     25          1           0       -0.364375    6.407311   -0.644612
     26          1           0       -1.631428    5.238991   -0.923139
     27          1           0        1.428663    5.917600    0.696945
     28          1           0        1.950047    4.265997    0.936852
     29          1           0        1.794708    2.384329    0.079201
     30          1           0       -2.400483    3.503854   -0.137656
     31          1           0       -3.000872    1.137168   -0.191264
     32          1           0        3.079201   -1.958471    0.171338
     33          1           0       -0.821074    6.375142    1.826171
     34          1           0       -2.103993    5.182995    1.578837
     35          1           0       -2.270160    6.817602    0.907275
     36          1           0        2.353837    4.053868   -1.571283
     37          1           0        1.840408    5.735135   -1.771766
     38          1           0        3.306892    5.364190   -0.848746
     39          1           0       -2.769204   -2.921949   -0.184960
     40          1           0        0.912724   -6.234038    0.037534
     41          1           0       -3.293753   -5.347436   -0.217689
     42          1           0       -1.453851   -7.019394   -0.106680
 ---------------------------------------------------------------------
                    Distance matrix (angstroms):
                    1          2          3          4          5
     1  O    0.000000
     2  O    4.672936   0.000000
     3  N    4.761520   9.433236   0.000000
     4  N    2.842754   5.500741   5.592585   0.000000
     5  C    3.636983   8.285078   1.369405   4.223351   0.000000
     6  C    1.356513   5.888174   3.677266   2.448578   2.419060
     7  C    2.423591   4.154598   6.312401   1.346151   4.970630
     8  C    2.406825   6.211766   4.236717   1.356007   2.867411
     9  C    6.085904  10.749978   1.458113   6.476391   2.477338
    10  C    5.026847   9.571344   1.457323   6.490447   2.467973
    11  C    2.336771   7.008979   2.424755   3.711820   1.408977
    12  C    3.712561   3.652760   7.746883   2.420040   6.397190
    13  C    1.371300   3.578542   5.990390   2.440702   4.762838
    14  C    4.124018   8.518504   2.439003   3.670343   1.432621
    15  C    4.189261   2.384156   8.671683   3.711153   7.367629
    16  C    3.660238   7.621414   3.691898   2.411663   2.445084
    17  C    2.324112   2.348830   7.084742   3.697728   5.944223
    18  C    3.683803   1.234905   8.423116   4.266013   7.218743
    19  C    6.839769  11.443679   2.497910   7.013301   3.324372
    20  C    5.320446   9.663247   2.497750   7.023743   3.305788
    21  C    4.893112   4.815411   8.421671   2.830836   7.052274
    22  C    5.586046   2.835214  10.028675   4.851607   8.708271
    23  C    6.119590   5.038694   9.805759   4.215896   8.436401
    24  C    6.416273   4.222754  10.542232   5.060922   9.184921
    25  H    6.759293  11.418916   2.064794   7.393111   3.294137
    26  H    6.190964  10.777793   2.093571   6.198420   2.645613
    27  H    6.039398  10.565358   2.065651   7.406569   3.292357
    28  H    4.479085   8.887787   2.090030   6.219997   2.631305
    29  H    2.510837   7.000606   2.715223   4.555237   2.187233
    30  H    5.205872   9.563297   2.691684   4.523900   2.186165
    31  H    4.538678   8.093632   4.576230   2.616997   3.433252
    32  H    2.541104   2.613690   7.117150   4.570644   6.116793
    33  H    7.044790  11.615562   2.771748   7.542898   3.742833
    34  H    6.486622  10.969233   2.791470   6.352201   3.174034
    35  H    7.847712  12.449431   3.432936   7.834339   4.272743
    36  H    4.565181   8.783803   2.787868   6.361992   3.146981
    37  H    6.126997  10.502989   2.776911   7.552187   3.734418
    38  H    5.862143   9.980843   3.432060   7.845248   4.250924
    39  H    5.015240   5.761321   7.958829   2.468332   6.601091
    40  H    6.161674   2.491965  10.766110   5.800680   9.479096
    41  H    7.028894   6.104021  10.417700   4.853276   9.053589
    42  H    7.482602   4.879113  11.624634   6.121885  10.265695
                    6          7          8          9         10
     6  C    0.000000
     7  C    2.727551   0.000000
     8  C    1.426518   2.290969   0.000000
     9  C    4.894863   7.376153   5.156329   0.000000
    10  C    4.251113   6.977989   5.161563   2.473232   0.000000
    11  C    1.379093   4.106633   2.465156   3.772757   2.873149
    12  C    4.169641   1.444305   3.633043   8.774958   8.419494
    13  C    2.344232   1.431736   2.717785   7.238024   6.370039
    14  C    2.767773   4.728681   2.437997   2.890393   3.784577
    15  C    4.999372   2.488074   4.778562   9.812424   9.165458
    16  C    2.409375   3.609097   1.416520   4.260684   4.911215
    17  C    3.565757   2.468631   4.081586   8.404576   7.265936
    18  C    4.801731   2.919864   5.011492   9.693233   8.687078
    19  C    5.628709   7.977684   5.752620   1.528719   3.336893
    20  C    4.736338   7.387445   5.751368   3.341095   1.529284
    21  C    5.071700   2.472839   4.185425   9.285092   9.267456
    22  C    6.367677   3.759336   6.031827  11.132497  10.555533
    23  C    6.415917   3.743731   5.570053  10.665246  10.633865
    24  C    6.977099   4.252862   6.368301  11.523241  11.225549
    25  H    5.660085   8.224835   6.060528   1.094747   2.505326
    26  H    4.928089   7.203331   4.948731   1.093057   3.318575
    27  H    5.237621   7.950571   6.067471   2.505763   1.094704
    28  H    3.889686   6.557904   4.955562   3.316129   1.093557
    29  H    2.107728   4.702006   3.418852   4.165901   2.574616
    30  H    3.849530   5.680357   3.404241   2.553488   4.142023
    31  H    3.389174   3.951489   2.143082   4.902037   5.880455
    32  H    3.894866   3.445945   4.712562   8.508782   7.078602
    33  H    5.949612   8.392927   6.265695   2.175029   3.148921
    34  H    5.241224   7.372881   5.175322   2.179056   3.833131
    35  H    6.600123   8.873142   6.610821   2.166665   4.244231
    36  H    4.102404   6.626387   5.170191   3.832350   2.180247
    37  H    5.420808   8.033592   6.268479   3.158674   2.175259
    38  H    5.468692   8.082947   6.606369   4.250656   2.166236
    39  H    4.898015   2.666946   3.775817   8.688467   8.936584
    40  H    7.088854   4.617467   6.908433  11.933181  11.184110
    41  H    7.188448   4.612920   6.199657  11.170034  11.340558
    42  H    8.062806   5.338764   7.440327  12.592753  12.310830
                   11         12         13         14         15
    11  C    0.000000
    12  C    5.548410   0.000000
    13  C    3.591283   2.450075   0.000000
    14  C    2.428688   6.051583   4.943581   0.000000
    15  C    6.337218   1.415819   2.818303   7.215473   0.000000
    16  C    2.797262   4.830328   4.131373   1.371195   6.080107
    17  C    4.660280   2.850653   1.364086   6.260603   2.491049
    18  C    6.004953   2.519712   2.458742   7.357135   1.478446
    19  C    4.605483   9.335984   7.932536   3.465805  10.418244
    20  C    3.439140   8.800469   6.659483   4.610915   9.444003
    21  C    6.426691   1.408456   3.749400   6.434208   2.432568
    22  C    7.717657   2.431601   4.215135   8.464504   1.396832
    23  C    7.781833   2.425543   4.875403   7.806507   2.796870
    24  C    8.355290   2.808589   5.068735   8.729278   2.421658
    25  H    4.437668   9.639621   7.976397   3.888579  10.620245
    26  H    3.999028   8.550742   7.230886   2.605823   9.665872
    27  H    3.874847   9.390552   7.374832   4.454978  10.158955
    28  H    2.589772   7.975699   5.826930   4.005339   8.623250
    29  H    1.081871   6.104751   3.879453   3.432982   6.697317
    30  H    3.416227   6.940331   5.996969   1.082045   8.165338
    31  H    3.882344   4.946675   4.771176   2.140041   6.301757
    32  H    4.742336   3.935229   2.130971   6.661989   3.476222
    33  H    4.834692   9.769937   8.202713   4.173773  10.765639
    34  H    4.423839   8.674515   7.462031   2.991598   9.804323
    35  H    5.609577  10.204242   8.910153   4.231505  11.338349
    36  H    2.962552   8.003457   5.858709   4.419110   8.594905
    37  H    4.153353   9.441405   7.425138   4.848919  10.161965
    38  H    4.199923   9.474422   7.211830   5.613013  10.000279
    39  H    6.180098   2.147843   4.085362   5.802307   3.408382
    40  H    8.398577   3.402618   4.818054   9.346037   2.131801
    41  H    8.527060   3.407536   5.843042   8.283953   3.883291
    42  H    9.440842   3.894497   6.126748   9.783980   3.404271
                   16         17         18         19         20
    16  C    0.000000
    17  C    5.494062   0.000000
    18  C    6.413672   1.457905   0.000000
    19  C    4.752677   9.121245  10.369217   0.000000
    20  C    5.639660   7.429174   8.858674   4.532902   0.000000
    21  C    5.097604   4.259105   3.797843   9.756712   9.721153
    22  C    7.261130   3.774191   2.481656  11.706499  10.830594
    23  C    6.460200   5.101806   4.275114  11.117715  11.061497
    24  C    7.430822   4.912656   3.764995  12.029680  11.572605
    25  H    5.244965   9.074921  10.409109   2.159674   3.023355
    26  H    3.897010   8.460986   9.674967   2.172991   3.930055
    27  H    5.678357   8.269209   9.688779   3.019190   2.160252
    28  H    4.942886   6.625692   8.056163   3.922995   2.173215
    29  H    3.877721   4.698509   6.129082   5.044523   2.921886
    30  H    2.113297   7.325880   8.387466   2.919771   5.018273
    31  H    1.085220   6.124033   6.862096   5.242313   6.623875
    32  H    6.083691   1.084584   2.190813   9.266400   7.136087
    33  H    5.433105   9.305583  10.599687   1.094618   4.460816
    34  H    4.121027   8.691895   9.861779   1.093668   5.133719
    35  H    5.488947  10.128827  11.353339   1.095214   5.284487
    36  H    5.246124   6.585760   7.992554   5.130548   1.093392
    37  H    5.966476   8.261772   9.661603   4.465221   1.094673
    38  H    6.608332   7.831512   9.278510   5.285849   1.095136
    39  H    4.433886   4.871146   4.663925   9.103130   9.461545
    40  H    8.192982   4.090214   2.647755  12.534793  11.396166
    41  H    6.914975   6.160357   5.361507  11.562648  11.809988
    42  H    8.471617   5.878688   4.629984  13.083859  12.648836
                   21         22         23         24         25
    21  C    0.000000
    22  C    2.788268   0.000000
    23  C    1.385145   2.410475   0.000000
    24  C    2.416562   1.388177   1.399536   0.000000
    25  H   10.208740  11.960392  11.590101  12.407157   0.000000
    26  H    8.940820  10.941456  10.303044  11.234514   1.745844
    27  H   10.199629  11.545077  11.570817  12.194039   2.292287
    28  H    8.910803  10.013777  10.250904  10.755197   3.527436
    29  H    7.128172   8.094053   8.442114   8.873993   4.622762
    30  H    7.176871   9.369528   8.521063   9.533890   3.582289
    31  H    4.906048   7.348957   6.197645   7.313630   5.910249
    32  H    5.343683   4.659085   6.162233   5.882832   9.083518
    33  H   10.290948  12.078365  11.651466  12.487559   2.512843
    34  H    9.009301  11.048267  10.346517  11.299177   3.077166
    35  H   10.534091  12.602487  11.881214  12.856487   2.491728
    36  H    8.962313   9.968022  10.274580  10.734939   3.712962
    37  H   10.272366  11.533039  11.620006  12.204446   2.565807
    38  H   10.481837  11.387720  11.799692  12.219301   3.822038
    39  H    1.084290   3.872463   2.155091   3.405931   9.645184
    40  H    3.873347   1.085325   3.404869   2.161750  12.723993
    41  H    2.141653   3.394985   1.086421   2.158236  12.121782
    42  H    3.399494   2.149008   2.160376   1.085909  13.481570
                   26         27         28         29         30
    26  H    0.000000
    27  H    3.528362   0.000000
    28  H    4.151294   1.748482   0.000000
    29  H    4.570797   3.605496   2.073733   0.000000
    30  H    2.054051   4.602725   4.545606   4.347412   0.000000
    31  H    4.385882   6.577402   5.964378   4.962474   2.442241
    32  H    8.671295   8.064305   6.372205   4.529715   7.743346
    33  H    3.083215   2.558478   3.594231   5.081418   3.820398
    34  H    2.546829   3.714436   4.205743   5.028053   2.419456
    35  H    2.500081   3.812550   4.931705   6.071472   3.477037
    36  H    4.207962   3.078035   2.549271   2.413314   4.996135
    37  H    3.608319   2.509454   3.083342   3.828324   5.063011
    38  H    4.940467   2.494627   2.497082   3.468048   6.044884
    39  H    8.272871   9.825348   8.671583   7.003975   6.436548
    40  H   11.790928  12.180448  10.589406   8.663479  10.287593
    41  H   10.739340  12.249032  11.011289   9.260711   8.896610
    42  H   12.286828  13.278573  11.833661   9.950764  10.565786
                   31         32         33         34         35
    31  H    0.000000
    32  H    6.832404   0.000000
    33  H    6.021456   9.348782   0.000000
    34  H    4.506258   8.935720   1.768692   0.000000
    35  H    5.831642  10.304209   1.772002   1.774978   0.000000
    36  H    6.251759   6.301674   5.197217   5.574086   5.929825
    37  H    6.861288   8.031303   4.520868   5.204777   5.024516
    38  H    7.621540   7.396876   5.021683   5.933268   6.024909
    39  H    4.065728   5.937936   9.709571   8.321275   9.813301
    40  H    8.348847   4.794998  12.852886  11.909023  13.462262
    41  H    6.491269   7.228484  12.153614  10.748628  12.259748
    42  H    8.302406   6.799912  13.548060  12.335395  13.898091
                   36         37         38         39         40
    36  H    0.000000
    37  H    1.769311   0.000000
    38  H    1.774068   1.772045   0.000000
    39  H    8.765242   9.935370  10.296585   0.000000
    40  H   10.512189  12.140645  11.875876   4.957421   0.000000
    41  H   11.050431  12.312520  12.597844   2.481775   4.306466
    42  H   11.800877  13.277902  13.287908   4.304107   2.497650
                   41         42
    41  H    0.000000
    42  H    2.488576   0.000000
 Stoichiometry    C20H18N2O2
 Framework group  C1[X(C20H18N2O2)]
 Deg. of freedom   120
 Full point group                 C1      NOp   1
 Largest Abelian subgroup         C1      NOp   1
 Largest concise Abelian subgroup C1      NOp   1
                         Standard orientation:                         
 ---------------------------------------------------------------------
 Center     Atomic      Atomic             Coordinates (Angstroms)
 Number     Number       Type             X           Y           Z
 ---------------------------------------------------------------------
      1          8           0        0.083762    1.358557    0.139369
      2          8           0        4.540504    2.754135    0.301060
      3          7           0       -4.501160    0.082256   -0.007679
      4          7           0        0.903539   -1.349292   -0.137714
      5          6           0       -3.173120   -0.250109   -0.041058
      6          6           0       -0.835133    0.365775    0.038651
      7          6           0        1.796538   -0.347760   -0.029967
      8          6           0       -0.402475   -0.986086   -0.103592
      9          6           0       -5.556066   -0.895899   -0.245332
     10          6           0       -4.940837    1.445213    0.262177
     11          6           0       -2.165336    0.728608    0.067108
     12          6           0        3.212748   -0.630370   -0.052271
     13          6           0        1.413469    1.024736    0.109248
     14          6           0       -2.757006   -1.613844   -0.180619
     15          6           0        4.163979    0.412322    0.059514
     16          6           0       -1.429475   -1.955828   -0.210352
     17          6           0        2.299234    2.056246    0.219408
     18          6           0        3.737906    1.820858    0.201967
     19          6           0       -6.007996   -1.624140    1.020530
     20          6           0       -5.026007    2.317487   -0.991056
     21          6           0        3.668072   -1.956429   -0.186413
     22          6           0        5.527387    0.109574    0.034987
     23          6           0        5.024676   -2.235303   -0.208374
     24          6           0        5.962160   -1.202068   -0.097691
     25          1           0       -6.402316   -0.356766   -0.683133
     26          1           0       -5.228108   -1.607333   -1.007617
     27          1           0       -5.926183    1.380375    0.734688
     28          1           0       -4.277736    1.896636    1.005401
     29          1           0       -2.390862    1.783250    0.152630
     30          1           0       -3.494660   -2.402850   -0.245097
     31          1           0       -1.125653   -2.992841   -0.310344
     32          1           0        1.946897    3.076797    0.322643
     33          1           0       -6.382133   -0.915933    1.766623
     34          1           0       -5.184215   -2.183575    1.472777
     35          1           0       -6.814526   -2.326885    0.785683
     36          1           0       -4.053238    2.405286   -1.482502
     37          1           0       -5.731593    1.895234   -1.713662
     38          1           0       -5.370797    3.323167   -0.728279
     39          1           0        2.932544   -2.748538   -0.271543
     40          1           0        6.230603    0.931590    0.122779
     41          1           0        5.359973   -3.263436   -0.312440
     42          1           0        7.024922   -1.424371   -0.115471
 ---------------------------------------------------------------------
 Rotational constants (GHZ):           0.6523398           0.1070901           0.0935733
 Standard basis: 6-31+G(d) (6D, 7F)
 There are   492 symmetry adapted cartesian basis functions of A   symmetry.
 There are   492 symmetry adapted basis functions of A   symmetry.
   492 basis functions,   840 primitive gaussians,   492 cartesian basis functions
    84 alpha electrons       84 beta electrons
       nuclear repulsion energy      1896.2578296593 Hartrees.
 NAtoms=   42 NActive=   42 NUniq=   42 SFac= 1.00D+00 NAtFMM=   60 NAOKFM=F Big=F
 Integral buffers will be    131072 words long.
 Raffenetti 2 integral format.
 Two-electron integral symmetry is turned on.
 ------------------------------------------------------------------------------
 Polarizable Continuum Model (PCM)
 =================================
 Model                : PCM.
 Atomic radii         : UFF (Universal Force Field).
 Polarization charges : Total charges.
 Charge compensation  : None.
 Solution method      : On-the-fly selection.
 Cavity type          : Scaled VdW (van der Waals Surface) (Alpha=1.100).
 Cavity algorithm     : GePol (No added spheres)
                        Default sphere list used, NSphG=   42.
                        Lebedev-Laikov grids with approx.  5.0 points / Ang**2.
                        Smoothing algorithm: York/Karplus (Gamma=1.0000).
                        Polarization charges: spherical gaussians, with
                                              point-specific exponents (IZeta= 3).
                        Self-potential: point-specific (ISelfS= 7).
                        Self-field    : sphere-specific E.n sum rule (ISelfD= 2).
 1st derivatives      : Analytical E(r).r(x)/FMM algorithm (CHGder, D1EAlg=3).
                        Cavity 1st derivative terms included.
 Solvent              : Benzene, Eps=   2.270600 Eps(inf)=   2.253301
 ------------------------------------------------------------------------------
 One-electron integrals computed using PRISM.
 NBasis=   492 RedAO= T EigKep=  1.29D-06  NBF=   492
 NBsUse=   486 1.00D-06 EigRej=  6.57D-07 NBFU=   486
 ExpMin= 4.38D-02 ExpMax= 5.48D+03 ExpMxC= 8.25D+02 IAcc=3 IRadAn=         5 AccDes= 0.00D+00
 Harris functional with IExCor=20419 and IRadAn=       5 diagonalized for initial guess.
 HarFok:  IExCor=20419 AccDes= 0.00D+00 IRadAn=         5 IDoV= 1 UseB2=F ITyADJ=14
 ICtDFT=  3500011 ScaDFX=  1.000000  1.000000  1.000000  1.000000
 FoFCou: FMM=F IPFlag=           0 FMFlag=      100000 FMFlg1=           0
         NFxFlg=           0 DoJE=T BraDBF=F KetDBF=T FulRan=T
         wScrn=  0.000000 ICntrl=       500 IOpCl=  0 I1Cent=   200000004 NGrid=           0
         NMat0=    1 NMatS0=      1 NMatT0=    0 NMatD0=    1 NMtDS0=    0 NMtDT0=    0
 Petite list used in FoFCou.
 Requested convergence on RMS density matrix=1.00D-08 within 128 cycles.
 Requested convergence on MAX density matrix=1.00D-06.
 Requested convergence on             energy=1.00D-06.
 No special actions if energy rises.
 Inv3:  Mode=1 IEnd=    28109163.
 Iteration    1 A*A^-1 deviation from unit magnitude is 5.11D-15 for   3042.
 Iteration    1 A*A^-1 deviation from orthogonality  is 3.22D-15 for   3042   3000.
 Iteration    1 A^-1*A deviation from unit magnitude is 5.33D-15 for   3042.
 Iteration    1 A^-1*A deviation from orthogonality  is 2.44D-15 for   3046   1521.
 Error on total polarization charges =  0.01615
 SCF Done:  E(RCAM-B3LYP) =  -1032.41512846     A.U. after   17 cycles
            NFock= 17  Conv=0.76D-08     -V/T= 2.0091

 **********************************************************************

            Population analysis using the SCF Density.

 **********************************************************************

 Orbital symmetries:
       Occupied  (A) (A) (A) (A) (A) (A) (A) (A) (A) (A) (A) (A)
                 (A) (A) (A) (A) (A) (A) (A) (A) (A) (A) (A) (A)
                 (A) (A) (A) (A) (A) (A) (A) (A) (A) (A) (A) (A)
                 (A) (A) (A) (A) (A) (A) (A) (A) (A) (A) (A) (A)
                 (A) (A) (A) (A) (A) (A) (A) (A) (A) (A) (A) (A)
                 (A) (A) (A) (A) (A) (A) (A) (A) (A) (A) (A) (A)
                 (A) (A) (A) (A) (A) (A) (A) (A) (A) (A) (A) (A)
       Virtual   (A) (A) (A) (A) (A) (A) (A) (A) (A) (A) (A) (A)
                 (A) (A) (A) (A) (A) (A) (A) (A) (A) (A) (A) (A)
                 (A) (A) (A) (A) (A) (A) (A) (A) (A) (A) (A) (A)
                 (A) (A) (A) (A) (A) (A) (A) (A) (A) (A) (A) (A)
                 (A) (A) (A) (A) (A) (A) (A) (A) (A) (A) (A) (A)
                 (A) (A) (A) (A) (A) (A) (A) (A) (A) (A) (A) (A)
                 (A) (A) (A) (A) (A) (A) (A) (A) (A) (A) (A) (A)
                 (A) (A) (A) (A) (A) (A) (A) (A) (A) (A) (A) (A)
                 (A) (A) (A) (A) (A) (A) (A) (A) (A) (A) (A) (A)
                 (A) (A) (A) (A) (A) (A) (A) (A) (A) (A) (A) (A)
                 (A) (A) (A) (A) (A) (A) (A) (A) (A) (A) (A) (A)
                 (A) (A) (A) (A) (A) (A) (A) (A) (A) (A) (A) (A)
                 (A) (A) (A) (A) (A) (A) (A) (A) (A) (A) (A) (A)
                 (A) (A) (A) (A) (A) (A) (A) (A) (A) (A) (A) (A)
                 (A) (A) (A) (A) (A) (A) (A) (A) (A) (A) (A) (A)
                 (A) (A) (A) (A) (A) (A) (A) (A) (A) (A) (A) (A)
                 (A) (A) (A) (A) (A) (A) (A) (A) (A) (A) (A) (A)
                 (A) (A) (A) (A) (A) (A) (A) (A) (A) (A) (A) (A)
                 (A) (A) (A) (A) (A) (A) (A) (A) (A) (A) (A) (A)
                 (A) (A) (A) (A) (A) (A) (A) (A) (A) (A) (A) (A)
                 (A) (A) (A) (A) (A) (A) (A) (A) (A) (A) (A) (A)
                 (A) (A) (A) (A) (A) (A) (A) (A) (A) (A) (A) (A)
                 (A) (A) (A) (A) (A) (A) (A) (A) (A) (A) (A) (A)
                 (A) (A) (A) (A) (A) (A) (A) (A) (A) (A) (A) (A)
                 (A) (A) (A) (A) (A) (A) (A) (A) (A) (A) (A) (A)
                 (A) (A) (A) (A) (A) (A) (A) (A) (A) (A) (A) (A)
                 (A) (A) (A) (A) (A) (A) (A) (A) (A) (A) (A) (A)
                 (A) (A) (A) (A) (A) (A) (A) (A) (A) (A) (A) (A)
                 (A) (A) (A) (A) (A) (A) (A) (A) (A) (A) (A) (A)
                 (A) (A) (A) (A) (A) (A) (A) (A) (A) (A) (A) (A)
                 (A) (A) (A) (A) (A) (A) (A) (A) (A) (A) (A) (A)
                 (A) (A) (A) (A) (A) (A) (A) (A) (A) (A) (A) (A)
                 (A) (A) (A) (A) (A) (A) (A) (A) (A) (A) (A) (A)
                 (A) (A) (A) (A) (A) (A)
 The electronic state is 1-A.
 Alpha  occ. eigenvalues --  -19.31306 -19.20060 -14.45173 -14.44812 -10.36157
 Alpha  occ. eigenvalues --  -10.35792 -10.34697 -10.34001 -10.33110 -10.31041
 Alpha  occ. eigenvalues --  -10.31029 -10.30951 -10.29081 -10.28864 -10.27958
 Alpha  occ. eigenvalues --  -10.27908 -10.27733 -10.27708 -10.27505 -10.27430
 Alpha  occ. eigenvalues --  -10.27235 -10.26585 -10.26488 -10.26408  -1.21625
 Alpha  occ. eigenvalues --   -1.10606  -1.06043  -1.04596  -0.97088  -0.94729
 Alpha  occ. eigenvalues --   -0.91072  -0.87551  -0.86457  -0.85753  -0.84388
 Alpha  occ. eigenvalues --   -0.82973  -0.80708  -0.76999  -0.75146  -0.73573
 Alpha  occ. eigenvalues --   -0.72479  -0.70735  -0.69702  -0.67411  -0.64727
 Alpha  occ. eigenvalues --   -0.63340  -0.61595  -0.60171  -0.59785  -0.57798
 Alpha  occ. eigenvalues --   -0.56251  -0.55700  -0.54759  -0.53680  -0.53133
 Alpha  occ. eigenvalues --   -0.52264  -0.51655  -0.51247  -0.50336  -0.50079
 Alpha  occ. eigenvalues --   -0.49158  -0.49004  -0.48856  -0.47760  -0.47620
 Alpha  occ. eigenvalues --   -0.46730  -0.46543  -0.45634  -0.45402  -0.44437
 Alpha  occ. eigenvalues --   -0.43625  -0.42948  -0.42814  -0.42529  -0.41855
 Alpha  occ. eigenvalues --   -0.41526  -0.38273  -0.35485  -0.33659  -0.31646
 Alpha  occ. eigenvalues --   -0.31597  -0.31471  -0.29239  -0.24106
 Alpha virt. eigenvalues --   -0.07161   0.00067   0.02170   0.02247   0.02773
 Alpha virt. eigenvalues --    0.03544   0.03639   0.04049   0.04535   0.04623
 Alpha virt. eigenvalues --    0.05425   0.05620   0.06209   0.06437   0.06517
 Alpha virt. eigenvalues --    0.07546   0.07801   0.08131   0.08274   0.08582
 Alpha virt. eigenvalues --    0.09297   0.09743   0.09970   0.10079   0.10444
 Alpha virt. eigenvalues --    0.10562   0.10872   0.11256   0.11665   0.11959
 Alpha virt. eigenvalues --    0.12133   0.12736   0.12918   0.13468   0.14075
 Alpha virt. eigenvalues --    0.14342   0.14593   0.14949   0.15122   0.15933
 Alpha virt. eigenvalues --    0.16444   0.16553   0.17028   0.17195   0.17648
 Alpha virt. eigenvalues --    0.17900   0.18219   0.18683   0.19127   0.19185
 Alpha virt. eigenvalues --    0.19443   0.19814   0.20213   0.20366   0.20970
 Alpha virt. eigenvalues --    0.21354   0.21645   0.22052   0.22169   0.22506
 Alpha virt. eigenvalues --    0.22729   0.23147   0.23274   0.23531   0.23899
 Alpha virt. eigenvalues --    0.24170   0.24725   0.25202   0.25493   0.25725
 Alpha virt. eigenvalues --    0.26203   0.26368   0.26808   0.26888   0.27111
 Alpha virt. eigenvalues --    0.27319   0.27637   0.28195   0.28446   0.28491
 Alpha virt. eigenvalues --    0.28737   0.28989   0.29200   0.29356   0.29783
 Alpha virt. eigenvalues --    0.30178   0.30477   0.30558   0.30721   0.30891
 Alpha virt. eigenvalues --    0.31230   0.31881   0.32423   0.32825   0.32939
 Alpha virt. eigenvalues --    0.33227   0.33393   0.33802   0.34434   0.34617
 Alpha virt. eigenvalues --    0.34808   0.35395   0.35456   0.35682   0.36200
 Alpha virt. eigenvalues --    0.36531   0.36821   0.36868   0.37349   0.37600
 Alpha virt. eigenvalues --    0.38360   0.38931   0.39233   0.39606   0.39946
 Alpha virt. eigenvalues --    0.40405   0.40960   0.41363   0.41973   0.42416
 Alpha virt. eigenvalues --    0.42728   0.43372   0.43871   0.44300   0.44795
 Alpha virt. eigenvalues --    0.45723   0.45751   0.47451   0.48431   0.48841
 Alpha virt. eigenvalues --    0.49342   0.50244   0.50664   0.51911   0.52606
 Alpha virt. eigenvalues --    0.53587   0.56063   0.58460   0.60574   0.63524
 Alpha virt. eigenvalues --    0.65754   0.68061   0.69836   0.70627   0.71278
 Alpha virt. eigenvalues --    0.71767   0.72682   0.73028   0.73722   0.74429
 Alpha virt. eigenvalues --    0.74949   0.75123   0.76065   0.76637   0.77098
 Alpha virt. eigenvalues --    0.77557   0.78027   0.78371   0.79426   0.79578
 Alpha virt. eigenvalues --    0.80104   0.80331   0.81019   0.81582   0.82024
 Alpha virt. eigenvalues --    0.82332   0.82880   0.83978   0.84697   0.84981
 Alpha virt. eigenvalues --    0.85104   0.85711   0.86505   0.87919   0.88632
 Alpha virt. eigenvalues --    0.89324   0.89486   0.90576   0.91476   0.92837
 Alpha virt. eigenvalues --    0.93522   0.94192   0.94602   0.96933   0.97118
 Alpha virt. eigenvalues --    0.98023   0.98356   0.99832   1.00642   1.01379
 Alpha virt. eigenvalues --    1.02472   1.02940   1.03341   1.04864   1.05762
 Alpha virt. eigenvalues --    1.06085   1.06552   1.07160   1.07638   1.08167
 Alpha virt. eigenvalues --    1.08689   1.09832   1.11416   1.12237   1.13961
 Alpha virt. eigenvalues --    1.14280   1.15416   1.16679   1.17024   1.18371
 Alpha virt. eigenvalues --    1.19035   1.19477   1.20469   1.20879   1.21083
 Alpha virt. eigenvalues --    1.21995   1.22867   1.24197   1.25820   1.25904
 Alpha virt. eigenvalues --    1.26408   1.27484   1.28115   1.28566   1.29154
 Alpha virt. eigenvalues --    1.30318   1.31500   1.31503   1.31885   1.32731
 Alpha virt. eigenvalues --    1.32972   1.33957   1.34456   1.35039   1.36737
 Alpha virt. eigenvalues --    1.38089   1.39975   1.40442   1.40695   1.40851
 Alpha virt. eigenvalues --    1.42145   1.43418   1.44596   1.45205   1.46077
 Alpha virt. eigenvalues --    1.47305   1.48394   1.48545   1.49556   1.50119
 Alpha virt. eigenvalues --    1.50715   1.51434   1.51485   1.52356   1.55001
 Alpha virt. eigenvalues --    1.55146   1.55752   1.56420   1.56477   1.57489
 Alpha virt. eigenvalues --    1.58456   1.60562   1.61513   1.63635   1.69230
 Alpha virt. eigenvalues --    1.69680   1.72515   1.76205   1.79262   1.81190
 Alpha virt. eigenvalues --    1.82331   1.82837   1.84045   1.85871   1.86809
 Alpha virt. eigenvalues --    1.89002   1.89810   1.90338   1.91435   1.92077
 Alpha virt. eigenvalues --    1.93288   1.93943   1.94193   1.94330   1.95189
 Alpha virt. eigenvalues --    1.96770   1.98145   1.98649   1.99719   2.00712
 Alpha virt. eigenvalues --    2.02317   2.02615   2.03057   2.03841   2.05037
 Alpha virt. eigenvalues --    2.05629   2.06963   2.08096   2.09456   2.10974
 Alpha virt. eigenvalues --    2.11391   2.13143   2.13764   2.14357   2.15432
 Alpha virt. eigenvalues --    2.16507   2.18182   2.18704   2.19518   2.22818
 Alpha virt. eigenvalues --    2.23968   2.24795   2.26222   2.27334   2.28469
 Alpha virt. eigenvalues --    2.30142   2.31463   2.32730   2.32973   2.33582
 Alpha virt. eigenvalues --    2.34352   2.35299   2.36215   2.37330   2.38002
 Alpha virt. eigenvalues --    2.38786   2.39930   2.41210   2.41586   2.42232
 Alpha virt. eigenvalues --    2.43103   2.45397   2.46801   2.47789   2.49454
 Alpha virt. eigenvalues --    2.50326   2.54524   2.56106   2.58025   2.60394
 Alpha virt. eigenvalues --    2.61908   2.64122   2.66469   2.66856   2.69225
 Alpha virt. eigenvalues --    2.70777   2.71608   2.72569   2.73246   2.76065
 Alpha virt. eigenvalues --    2.76595   2.77280   2.78346   2.79601   2.80519
 Alpha virt. eigenvalues --    2.81301   2.84786   2.85652   2.89841   2.90037
 Alpha virt. eigenvalues --    2.91512   2.92526   2.96363   2.98739   3.03965
 Alpha virt. eigenvalues --    3.05542   3.07856   3.10526   3.14547   3.17472
 Alpha virt. eigenvalues --    3.19944   3.25027   3.26522   3.31579   3.44556
 Alpha virt. eigenvalues --    3.46303   3.59045   3.61320   4.25702   4.31471
 Alpha virt. eigenvalues --    4.32393   4.33425   4.35753   4.37034   4.39927
 Alpha virt. eigenvalues --    4.41812   4.44024   4.45453   4.47286   4.49950
 Alpha virt. eigenvalues --    4.51525   4.52285   4.54254   4.58011   4.61373
 Alpha virt. eigenvalues --    4.62712   4.65029   4.69450   4.79778   4.85852
 Alpha virt. eigenvalues --    4.98717   5.33477
          Condensed to atoms (all electrons):
               1          2          3          4          5          6
     1  O    8.795103  -0.001413  -0.004156  -0.067929   0.061633  -0.336831
     2  O   -0.001413   8.592800   0.000000   0.000349  -0.000054   0.006671
     3  N   -0.004156   0.000000   7.226188   0.000800   0.052925   0.120064
     4  N   -0.067929   0.000349   0.000800   7.529067   0.001335   0.070053
     5  C    0.061633  -0.000054   0.052925   0.001335  10.527068  -1.856870
     6  C   -0.336831   0.006671   0.120064   0.070053  -1.856870  11.764018
     7  C    0.273448  -0.103470   0.001524  -0.203316  -0.446892  -2.010338
     8  C    0.327838  -0.008312  -0.062770  -0.255148  -0.943718  -2.635506
     9  C   -0.001022   0.000000   0.012464  -0.001515   0.152672  -0.035523
    10  C    0.004519  -0.000001  -0.000859   0.001102   0.050148  -0.137843
    11  C   -0.217556  -0.001102  -0.139374   0.072754  -0.392400   0.474408
    12  C    0.095588  -0.092624  -0.000989  -0.398608  -0.020160  -0.404055
    13  C   -0.274539   0.079045  -0.002237  -0.145503  -0.172594   0.639499
    14  C    0.017198   0.000068   0.014406   0.180423  -0.485223  -0.289787
    15  C   -0.051327  -0.173114   0.000330  -0.123577  -0.017107   0.336047
    16  C    0.007575   0.000461   0.064504  -0.116200  -0.331885  -0.021703
    17  C   -0.196812  -0.251557   0.001627   0.094140   0.075831   0.667533
    18  C    0.029944   0.342879  -0.000337  -0.032202  -0.031190  -0.261616
    19  C    0.000191  -0.000000   0.052016   0.000267  -0.300752  -0.002374
    20  C   -0.000744  -0.000000   0.060754  -0.000384  -0.454211   0.124850
    21  C    0.020829   0.015763  -0.000183   0.443476  -0.042405  -0.472872
    22  C   -0.010414   0.145187   0.000018  -0.048365  -0.012443  -0.104780
    23  C    0.002878  -0.015947  -0.000034   0.265552   0.006731  -0.047961
    24  C    0.000911   0.054457   0.000002   0.006837   0.001314  -0.000360
    25  H   -0.000002   0.000000  -0.072793   0.000002   0.035003   0.001046
    26  H    0.000002   0.000000  -0.062631   0.000003   0.036621  -0.009070
    27  H    0.000003   0.000000  -0.068947   0.000001   0.035979  -0.000978
    28  H    0.000002  -0.000000  -0.066809   0.000009   0.057584  -0.021203
    29  H   -0.010131  -0.000000  -0.012366  -0.000647  -0.000603  -0.021509
    30  H    0.000135  -0.000000  -0.016111   0.000092  -0.043888   0.047349
    31  H   -0.000552   0.000000   0.000300  -0.010322  -0.022959   0.084130
    32  H   -0.007787  -0.004798   0.000005  -0.000384  -0.002543  -0.014565
    33  H    0.000000   0.000000   0.007442   0.000001   0.002303  -0.002653
    34  H   -0.000001  -0.000000  -0.001427   0.000002  -0.063426   0.007159
    35  H   -0.000000   0.000000   0.006004  -0.000000   0.008332   0.000050
    36  H   -0.000060  -0.000000   0.001311  -0.000014  -0.119786   0.050072
    37  H    0.000002  -0.000000   0.003053   0.000001   0.035386  -0.010458
    38  H    0.000005   0.000000   0.006485  -0.000000   0.008975  -0.000128
    39  H   -0.000043   0.000013  -0.000000  -0.001710   0.000049   0.009012
    40  H    0.000002   0.006043  -0.000000  -0.000010   0.000002   0.000170
    41  H    0.000000   0.000009  -0.000000   0.000392   0.000001   0.000103
    42  H   -0.000000   0.000074   0.000000   0.000070  -0.000000  -0.000070
               7          8          9         10         11         12
     1  O    0.273448   0.327838  -0.001022   0.004519  -0.217556   0.095588
     2  O   -0.103470  -0.008312   0.000000  -0.000001  -0.001102  -0.092624
     3  N    0.001524  -0.062770   0.012464  -0.000859  -0.139374  -0.000989
     4  N   -0.203316  -0.255148  -0.001515   0.001102   0.072754  -0.398608
     5  C   -0.446892  -0.943718   0.152672   0.050148  -0.392400  -0.020160
     6  C   -2.010338  -2.635506  -0.035523  -0.137843   0.474408  -0.404055
     7  C    9.169033   0.798364  -0.002465  -0.002027  -0.538428   1.830532
     8  C    0.798364  14.349560   0.032444   0.009018  -0.474340   0.424015
     9  C   -0.002465   0.032444   6.333228  -0.250166   0.365775  -0.000990
    10  C   -0.002027   0.009018  -0.250166   6.283543  -0.364373   0.000466
    11  C   -0.538428  -0.474340   0.365775  -0.364373   9.826192   0.064224
    12  C    1.830532   0.424015  -0.000990   0.000466   0.064224  10.412816
    13  C   -0.580641  -3.414617  -0.021831  -0.003246   0.447612  -0.548151
    14  C    0.477989  -1.497176  -0.461718   0.214409  -2.576503  -0.105255
    15  C   -0.070253  -0.690354  -0.000045  -0.001084  -0.006603   1.854595
    16  C   -0.290153  -0.435873  -0.222167   0.130471  -0.522537   0.109550
    17  C   -0.859605  -0.152639   0.001981   0.001512   0.248979  -0.003684
    18  C    0.355717   0.137397  -0.000228   0.001170  -0.075273  -1.414202
    19  C   -0.000612  -0.004665  -0.267659   0.035700  -0.030368  -0.000010
    20  C    0.003678   0.024828   0.033730  -0.287607   0.268753   0.000229
    21  C   -1.466618   0.054120  -0.000223   0.000458  -0.011249  -2.955773
    22  C   -0.623456  -0.279930   0.000002  -0.000154  -0.027999  -3.679090
    23  C   -0.325508   0.238417   0.000002   0.000100   0.004147  -0.288365
    24  C    0.146246   0.055461  -0.000001   0.000009   0.003910   0.729454
    25  H    0.000024  -0.000512   0.423767   0.022151  -0.010762   0.000000
    26  H    0.000061   0.005132   0.449350  -0.007279   0.039516  -0.000009
    27  H   -0.000009  -0.000419   0.021639   0.420233  -0.013605  -0.000001
    28  H   -0.000181  -0.017400  -0.009031   0.444327  -0.073561   0.000041
    29  H    0.001923   0.061625  -0.002300  -0.000948   0.277691   0.000081
    30  H    0.002975   0.049954  -0.012275  -0.004487   0.009011   0.000223
    31  H   -0.032245  -0.050871  -0.000331   0.000681  -0.010885   0.000698
    32  H    0.033165   0.004628   0.000001  -0.000022  -0.007042   0.024303
    33  H   -0.000009   0.000596  -0.057383  -0.005718   0.017580  -0.000001
    34  H    0.000115  -0.000736  -0.077181   0.008281  -0.013428   0.000004
    35  H   -0.000005  -0.000464  -0.083310   0.001539  -0.002321  -0.000000
    36  H    0.000836   0.014671   0.008839  -0.078365   0.078265  -0.000030
    37  H   -0.000059  -0.004141  -0.007415  -0.052206  -0.057239   0.000003
    38  H    0.000011   0.000218   0.001349  -0.086615  -0.003068   0.000000
    39  H    0.019082  -0.022489  -0.000000  -0.000000   0.000347  -0.068759
    40  H    0.006735   0.000107   0.000000   0.000000   0.000017   0.031681
    41  H   -0.005794   0.000055  -0.000000  -0.000000  -0.000000  -0.010413
    42  H   -0.003352   0.000156   0.000000   0.000000  -0.000000   0.009307
              13         14         15         16         17         18
     1  O   -0.274539   0.017198  -0.051327   0.007575  -0.196812   0.029944
     2  O    0.079045   0.000068  -0.173114   0.000461  -0.251557   0.342879
     3  N   -0.002237   0.014406   0.000330   0.064504   0.001627  -0.000337
     4  N   -0.145503   0.180423  -0.123577  -0.116200   0.094140  -0.032202
     5  C   -0.172594  -0.485223  -0.017107  -0.331885   0.075831  -0.031190
     6  C    0.639499  -0.289787   0.336047  -0.021703   0.667533  -0.261616
     7  C   -0.580641   0.477989  -0.070253  -0.290153  -0.859605   0.355717
     8  C   -3.414617  -1.497176  -0.690354  -0.435873  -0.152639   0.137397
     9  C   -0.021831  -0.461718  -0.000045  -0.222167   0.001981  -0.000228
    10  C   -0.003246   0.214409  -0.001084   0.130471   0.001512   0.001170
    11  C    0.447612  -2.576503  -0.006603  -0.522537   0.248979  -0.075273
    12  C   -0.548151  -0.105255   1.854595   0.109550  -0.003684  -1.414202
    13  C   13.289903   0.197257   1.584062  -0.106719  -2.310080  -1.408443
    14  C    0.197257  11.461020   0.038904  -1.189051  -0.238915  -0.010051
    15  C    1.584062   0.038904  13.280385   0.027349  -1.985236  -3.322487
    16  C   -0.106719  -1.189051   0.027349   9.360099   0.142147  -0.087083
    17  C   -2.310080  -0.238915  -1.985236   0.142147  10.186498   0.516615
    18  C   -1.408443  -0.010051  -3.322487  -0.087083   0.516615   8.994901
    19  C    0.000126   0.160521  -0.000041   0.074718  -0.000423   0.000024
    20  C   -0.003566  -0.064799  -0.000054  -0.023972   0.000633  -0.000246
    21  C   -1.724166   0.037190  -1.295540  -0.109059   0.415579   1.016300
    22  C    0.179761   0.021139  -3.892416  -0.012891  -0.159383   1.665147
    23  C   -0.327719  -0.004674   0.193279  -0.023062   0.122637  -0.040062
    24  C    0.035026  -0.003030  -0.095885   0.004470  -0.118411  -0.316505
    25  H    0.000012  -0.008415  -0.000000  -0.001219  -0.000000  -0.000000
    26  H   -0.000356  -0.057905   0.000000  -0.042297   0.000016  -0.000000
    27  H   -0.000012  -0.003384   0.000000  -0.004043  -0.000030  -0.000001
    28  H    0.003605   0.022850   0.000010   0.014365   0.000071   0.000006
    29  H    0.000469   0.037252  -0.000254  -0.026982  -0.013449  -0.000466
    30  H    0.003847   0.260040   0.000038   0.002955   0.000026   0.000018
    31  H    0.004786  -0.073232   0.000306   0.412092  -0.001245   0.000142
    32  H   -0.093099  -0.000130   0.005681  -0.000418   0.380716  -0.021881
    33  H   -0.000062  -0.029576  -0.000000  -0.008764   0.000003  -0.000000
    34  H    0.000164   0.051762   0.000000   0.024454  -0.000012   0.000000
    35  H   -0.000001  -0.002190  -0.000000   0.000170   0.000000  -0.000000
    36  H   -0.000431  -0.012365   0.000001  -0.010930  -0.000359   0.000007
    37  H    0.000235   0.018018   0.000000   0.006678   0.000014  -0.000000
    38  H   -0.000026  -0.000841  -0.000000  -0.000423  -0.000037  -0.000003
    39  H    0.012642  -0.002272   0.038681  -0.006546   0.003407   0.007328
    40  H    0.005056  -0.000000  -0.006861  -0.000000  -0.001763  -0.024574
    41  H   -0.000631  -0.000014  -0.001343  -0.000041  -0.000039   0.000660
    42  H   -0.001555   0.000001   0.035100   0.000018   0.000468  -0.014502
              19         20         21         22         23         24
     1  O    0.000191  -0.000744   0.020829  -0.010414   0.002878   0.000911
     2  O   -0.000000  -0.000000   0.015763   0.145187  -0.015947   0.054457
     3  N    0.052016   0.060754  -0.000183   0.000018  -0.000034   0.000002
     4  N    0.000267  -0.000384   0.443476  -0.048365   0.265552   0.006837
     5  C   -0.300752  -0.454211  -0.042405  -0.012443   0.006731   0.001314
     6  C   -0.002374   0.124850  -0.472872  -0.104780  -0.047961  -0.000360
     7  C   -0.000612   0.003678  -1.466618  -0.623456  -0.325508   0.146246
     8  C   -0.004665   0.024828   0.054120  -0.279930   0.238417   0.055461
     9  C   -0.267659   0.033730  -0.000223   0.000002   0.000002  -0.000001
    10  C    0.035700  -0.287607   0.000458  -0.000154   0.000100   0.000009
    11  C   -0.030368   0.268753  -0.011249  -0.027999   0.004147   0.003910
    12  C   -0.000010   0.000229  -2.955773  -3.679090  -0.288365   0.729454
    13  C    0.000126  -0.003566  -1.724166   0.179761  -0.327719   0.035026
    14  C    0.160521  -0.064799   0.037190   0.021139  -0.004674  -0.003030
    15  C   -0.000041  -0.000054  -1.295540  -3.892416   0.193279  -0.095885
    16  C    0.074718  -0.023972  -0.109059  -0.012891  -0.023062   0.004470
    17  C   -0.000423   0.000633   0.415579  -0.159383   0.122637  -0.118411
    18  C    0.000024  -0.000246   1.016300   1.665147  -0.040062  -0.316505
    19  C    5.799858  -0.008973   0.000076  -0.000001   0.000008   0.000000
    20  C   -0.008973   5.830215   0.000133  -0.000009  -0.000001   0.000003
    21  C    0.000076   0.000133  12.190755   2.817430  -1.512233  -1.312610
    22  C   -0.000001  -0.000009   2.817430  11.677168  -1.476087  -0.291524
    23  C    0.000008  -0.000001  -1.512233  -1.476087   8.361609   1.065741
    24  C    0.000000   0.000003  -1.312610  -0.291524   1.065741   6.257560
    25  H   -0.068117  -0.016561   0.000000  -0.000000   0.000000   0.000000
    26  H   -0.059536   0.004454  -0.000005   0.000000  -0.000000  -0.000000
    27  H   -0.015526  -0.066832  -0.000000   0.000000   0.000000  -0.000000
    28  H    0.002883  -0.062673  -0.000003   0.000000  -0.000000   0.000000
    29  H    0.001087  -0.004083   0.000115   0.000043   0.000014  -0.000006
    30  H   -0.008962   0.000749   0.000006   0.000001  -0.000008   0.000000
    31  H    0.000253  -0.000058  -0.000360   0.000144  -0.000082  -0.000033
    32  H   -0.000000   0.000016   0.007415   0.003337   0.000470   0.000597
    33  H    0.421248   0.001523  -0.000000  -0.000000  -0.000000   0.000000
    34  H    0.412950  -0.002091   0.000003   0.000000   0.000000  -0.000000
    35  H    0.416404   0.000023  -0.000000  -0.000000   0.000000   0.000000
    36  H   -0.002429   0.416947   0.000004   0.000000   0.000000  -0.000000
    37  H    0.001681   0.412656  -0.000000  -0.000000  -0.000000   0.000000
    38  H    0.000078   0.418375   0.000000  -0.000000   0.000000  -0.000000
    39  H   -0.000000  -0.000000   0.358234  -0.001443  -0.046606  -0.009308
    40  H    0.000000  -0.000000  -0.017981   0.322938   0.002403  -0.026660
    41  H    0.000000  -0.000000  -0.015595   0.020253   0.326523  -0.009830
    42  H   -0.000000   0.000000   0.011816  -0.077179  -0.028673   0.373508
              25         26         27         28         29         30
     1  O   -0.000002   0.000002   0.000003   0.000002  -0.010131   0.000135
     2  O    0.000000   0.000000   0.000000  -0.000000  -0.000000  -0.000000
     3  N   -0.072793  -0.062631  -0.068947  -0.066809  -0.012366  -0.016111
     4  N    0.000002   0.000003   0.000001   0.000009  -0.000647   0.000092
     5  C    0.035003   0.036621   0.035979   0.057584  -0.000603  -0.043888
     6  C    0.001046  -0.009070  -0.000978  -0.021203  -0.021509   0.047349
     7  C    0.000024   0.000061  -0.000009  -0.000181   0.001923   0.002975
     8  C   -0.000512   0.005132  -0.000419  -0.017400   0.061625   0.049954
     9  C    0.423767   0.449350   0.021639  -0.009031  -0.002300  -0.012275
    10  C    0.022151  -0.007279   0.420233   0.444327  -0.000948  -0.004487
    11  C   -0.010762   0.039516  -0.013605  -0.073561   0.277691   0.009011
    12  C    0.000000  -0.000009  -0.000001   0.000041   0.000081   0.000223
    13  C    0.000012  -0.000356  -0.000012   0.003605   0.000469   0.003847
    14  C   -0.008415  -0.057905  -0.003384   0.022850   0.037252   0.260040
    15  C   -0.000000   0.000000   0.000000   0.000010  -0.000254   0.000038
    16  C   -0.001219  -0.042297  -0.004043   0.014365  -0.026982   0.002955
    17  C   -0.000000   0.000016  -0.000030   0.000071  -0.013449   0.000026
    18  C   -0.000000  -0.000000  -0.000001   0.000006  -0.000466   0.000018
    19  C   -0.068117  -0.059536  -0.015526   0.002883   0.001087  -0.008962
    20  C   -0.016561   0.004454  -0.066832  -0.062673  -0.004083   0.000749
    21  C    0.000000  -0.000005  -0.000000  -0.000003   0.000115   0.000006
    22  C   -0.000000   0.000000   0.000000   0.000000   0.000043   0.000001
    23  C    0.000000  -0.000000   0.000000  -0.000000   0.000014  -0.000008
    24  C    0.000000  -0.000000  -0.000000   0.000000  -0.000006   0.000000
    25  H    0.507055  -0.027536  -0.004616   0.000249  -0.000004   0.000259
    26  H   -0.027536   0.519014   0.000257  -0.000254   0.000002  -0.000370
    27  H   -0.004616   0.000257   0.506894  -0.027053   0.000210  -0.000003
    28  H    0.000249  -0.000254  -0.027053   0.518777  -0.000182   0.000001
    29  H   -0.000004   0.000002   0.000210  -0.000182   0.504366  -0.000118
    30  H    0.000259  -0.000370  -0.000003   0.000001  -0.000118   0.515196
    31  H   -0.000000   0.000005  -0.000000   0.000000   0.000012  -0.004260
    32  H   -0.000000   0.000000   0.000000  -0.000000   0.000008   0.000000
    33  H   -0.004847   0.003965   0.001291  -0.000194   0.000000   0.000018
    34  H    0.003909  -0.004724   0.000022   0.000035  -0.000001   0.000898
    35  H   -0.000766  -0.000644  -0.000141  -0.000000   0.000000   0.000118
    36  H    0.000029   0.000034   0.003866  -0.004656   0.000952  -0.000001
    37  H    0.001276  -0.000187  -0.004843   0.003969   0.000005   0.000000
    38  H   -0.000141   0.000000  -0.000745  -0.000734   0.000096   0.000000
    39  H    0.000000   0.000000   0.000000   0.000000  -0.000000  -0.000000
    40  H    0.000000  -0.000000   0.000000   0.000000   0.000000   0.000000
    41  H    0.000000  -0.000000   0.000000  -0.000000  -0.000000   0.000000
    42  H    0.000000   0.000000   0.000000   0.000000   0.000000  -0.000000
              31         32         33         34         35         36
     1  O   -0.000552  -0.007787   0.000000  -0.000001  -0.000000  -0.000060
     2  O    0.000000  -0.004798   0.000000  -0.000000   0.000000  -0.000000
     3  N    0.000300   0.000005   0.007442  -0.001427   0.006004   0.001311
     4  N   -0.010322  -0.000384   0.000001   0.000002  -0.000000  -0.000014
     5  C   -0.022959  -0.002543   0.002303  -0.063426   0.008332  -0.119786
     6  C    0.084130  -0.014565  -0.002653   0.007159   0.000050   0.050072
     7  C   -0.032245   0.033165  -0.000009   0.000115  -0.000005   0.000836
     8  C   -0.050871   0.004628   0.000596  -0.000736  -0.000464   0.014671
     9  C   -0.000331   0.000001  -0.057383  -0.077181  -0.083310   0.008839
    10  C    0.000681  -0.000022  -0.005718   0.008281   0.001539  -0.078365
    11  C   -0.010885  -0.007042   0.017580  -0.013428  -0.002321   0.078265
    12  C    0.000698   0.024303  -0.000001   0.000004  -0.000000  -0.000030
    13  C    0.004786  -0.093099  -0.000062   0.000164  -0.000001  -0.000431
    14  C   -0.073232  -0.000130  -0.029576   0.051762  -0.002190  -0.012365
    15  C    0.000306   0.005681  -0.000000   0.000000  -0.000000   0.000001
    16  C    0.412092  -0.000418  -0.008764   0.024454   0.000170  -0.010930
    17  C   -0.001245   0.380716   0.000003  -0.000012   0.000000  -0.000359
    18  C    0.000142  -0.021881  -0.000000   0.000000  -0.000000   0.000007
    19  C    0.000253  -0.000000   0.421248   0.412950   0.416404  -0.002429
    20  C   -0.000058   0.000016   0.001523  -0.002091   0.000023   0.416947
    21  C   -0.000360   0.007415  -0.000000   0.000003  -0.000000   0.000004
    22  C    0.000144   0.003337  -0.000000   0.000000  -0.000000   0.000000
    23  C   -0.000082   0.000470  -0.000000   0.000000   0.000000   0.000000
    24  C   -0.000033   0.000597   0.000000  -0.000000   0.000000  -0.000000
    25  H   -0.000000  -0.000000  -0.004847   0.003909  -0.000766   0.000029
    26  H    0.000005   0.000000   0.003965  -0.004724  -0.000644   0.000034
    27  H   -0.000000   0.000000   0.001291   0.000022  -0.000141   0.003866
    28  H    0.000000  -0.000000  -0.000194   0.000035  -0.000000  -0.004656
    29  H    0.000012   0.000008   0.000000  -0.000001   0.000000   0.000952
    30  H   -0.004260   0.000000   0.000018   0.000898   0.000118  -0.000001
    31  H    0.487195   0.000000   0.000000  -0.000003  -0.000000   0.000000
[...]
 886,-0.00008168,-0.00000032,0.00018605,0.00005260,0.00000350,0.0004167
 4,0.00061891,0.00024962,-0.00003818,-0.00002394,-0.00000152,0.00012357
 ,-0.00038610,0.00010184,-0.00003883,0.00007953,-0.00000044,0.00005954,
 -0.00009211,0.00000587,0.00013666,-0.00019560,0.00009384,-0.05270576,-
 0.01839092,-0.06192226,0.00002514,0.00003938,0.00000147,0.00003015,0.0
 0002538,0.00000101,0.00000522,-0.00003312,0.00000040,-0.00003076,0.000
 02135,-0.00000140,-0.00007844,-0.00020908,-0.00002876,0.00009150,-0.00
 003972,-0.00002534,-0.00058278,-0.00054955,0.00115077,-0.00091668,0.00
 037048,0.00110688,-0.00006960,0.00004104,-0.00010661,-0.00000188,-0.00
 001127,-0.00005114,0.00001135,0.00002089,-0.00002490,-0.00000417,0.000
 00300,-0.00000006,-0.00001721,-0.00000392,-0.00000106,-0.00002280,0.00
 001835,0.00004123,0.00002820,-0.00005213,-0.00006918,-0.01379375,-0.00
 307455,-0.00337470,-0.01849489,-0.00817881,-0.00401492,0.05518164,0.01
 954464,0.06326258,-0.00006501,-0.00025602,-0.00000514,-0.00089395,-0.0
 0026562,-0.00003440,0.00000591,0.00004287,0.00000232,0.00030159,0.0011
 7238,0.00015577,0.00005661,-0.00007461,0.00000210,0.00007751,0.0002903
 8,0.00000707,0.00020377,0.00163890,0.00022693,0.00072662,-0.00087911,0
 .00005761,0.00001217,-0.00001129,0.00000090,-0.00001505,-0.00000304,-0
 .00000093,0.00011780,0.00005222,0.00000489,-0.01839408,0.02149131,-0.0
 0135788,-0.00065228,0.00032144,-0.00002850,-0.00005396,-0.00005902,-0.
 00000008,-0.00401265,-0.00364888,-0.00062801,-0.00007875,0.00009481,-0
 .00000820,0.00021702,-0.00058205,0.00000781,0.00051626,0.00214977,-0.0
 0000028,-0.00000236,0.00000230,-0.00000059,0.00000246,-0.00000162,-0.0
 0000035,-0.21885281,0.14389828,-0.01063899,-0.00024653,-0.00081145,0.0
 0002701,0.01035673,-0.00707199,0.00033098,0.00059806,-0.00213349,-0.00
 042901,-0.00000014,0.00000436,-0.00000020,-0.00000028,0.00000001,0.000
 00191,0.00000095,0.00000485,-0.00000015,-0.00000122,-0.00000150,-0.000
 00268,0.00001048,0.00003248,-0.00000150,0.00000124,0.00001370,-0.00000
 010,0.00001608,-0.00001828,-0.00000253,0.00000066,-0.00006880,-0.00000
 113,0.00000112,-0.00000017,0.00000093,0.00000187,-0.00000111,-0.000001
 50,-0.00000203,0.00000319,0.00000031,-0.00000232,0.00000050,0.00000241
 ,-0.00000078,0.00000100,-0.00000090,0.00000304,0.00000135,-0.00000006,
 0.22888843,0.00008029,-0.00001143,0.00000616,-0.00026432,-0.00020996,-
 0.00001617,0.00001882,0.00007060,0.00000181,-0.00256906,-0.00120720,-0
 .00004199,0.00002141,-0.00008298,0.00000030,-0.00001726,0.00001761,-0.
 00000202,0.00097578,-0.00135029,0.00005590,0.00026484,-0.00039159,0.00
 001571,0.00001764,-0.00001723,0.00000312,-0.00002436,-0.00000414,-0.00
 000368,0.00004420,0.00006573,0.00000352,-0.00642713,0.01255037,-0.0003
 7615,-0.00010120,0.00021472,-0.00001317,0.00000677,-0.00002811,0.00000
 146,-0.00253157,-0.00044037,-0.00015839,-0.00009156,0.00006164,-0.0000
 0534,0.00016159,-0.00020686,0.00000977,-0.00012636,0.00096462,-0.00000
 553,-0.00000408,0.00000181,-0.00000137,0.00000459,-0.00000056,0.000001
 04,0.14505320,-0.19201800,0.00861038,-0.00090511,-0.00033148,-0.000055
 47,0.02342335,-0.01487095,0.00139511,-0.00248083,-0.00450921,-0.000162
 84,0.00000006,0.00000645,-0.00000003,-0.00000180,-0.00000087,0.0000022
 2,0.00000271,0.00000574,0.00000030,0.00000037,-0.00000194,-0.00000244,
 0.00000813,0.00001071,0.00000009,-0.00000166,0.00000762,-0.00000006,0.
 00002242,-0.00004992,0.00000037,0.00000093,-0.00002754,0.00000046,0.00
 000216,0.00000052,0.00000080,0.00000173,-0.00000124,-0.00000249,-0.000
 00298,0.00000362,0.00000091,-0.00000189,-0.00000011,0.00000277,-0.0000
 0130,0.00000147,-0.00000091,0.00000423,0.00000116,-0.00000098,-0.15549
 307,0.20122945,-0.00000434,-0.00001733,0.00001678,-0.00004292,-0.00001
 023,-0.00032414,0.00000177,-0.00000462,-0.00000722,0.00014934,0.000186
 56,0.00026749,0.00000345,0.00000079,0.00001198,0.00000952,0.00001819,-
 0.00001800,0.00023551,0.00009891,-0.00349662,0.00005358,-0.00004309,-0
 .00024592,0.00000126,0.00000501,0.00001009,-0.00000083,0.00000075,0.00
 000277,0.00000191,0.00000078,0.00002999,-0.00137292,0.00130524,0.00432
 880,-0.00002399,0.00002067,-0.00019032,-0.00000019,-0.00000429,-0.0000
 5352,-0.00062838,-0.00022634,0.00625203,-0.00001098,0.00000393,0.00007
 941,0.00000704,-0.00003220,0.00005737,0.00000364,0.00012488,0.00057694
 ,-0.00000260,-0.00000324,-0.00000079,-0.00000034,0.00000189,0.00000155
 ,-0.01066061,0.00853207,-0.04141881,0.00002481,-0.00005185,-0.00070279
 ,0.00036246,-0.00044649,0.00473951,-0.00042622,-0.00014213,0.00760286,
 0.00000186,0.00000025,-0.00000030,-0.00000293,-0.00000156,-0.00000107,
 0.00000046,-0.00000104,-0.00000085,-0.00000216,-0.00000042,-0.00000125
 ,0.00000089,0.00000129,0.00002040,-0.00000019,0.00000061,-0.00000060,-
 0.00000091,0.00000088,0.00002964,-0.00000175,-0.00000400,0.00002087,-0
 .00000094,-0.00000167,-0.00000088,0.00000204,0.00000166,0.00000093,0.0
 0000015,0.00000069,-0.00000035,0.00000140,-0.00000225,0.00000059,0.000
 00025,0.00000201,-0.00000079,-0.00000048,-0.00000041,-0.00000081,0.011
 90528,-0.00932717,0.02795320,-0.00000237,0.00035436,0.00000061,-0.0013
 0200,-0.00109578,-0.00004717,0.00002010,0.00008263,0.00000109,-0.00003
 628,-0.00048902,-0.00000385,-0.00006646,-0.00007291,-0.00000555,-0.000
 00198,-0.00007512,0.00000395,0.00037199,-0.00008757,-0.00001601,0.0000
 5071,0.00018794,0.00001265,0.00002185,-0.00001882,0.00000467,-0.000021
 41,-0.00000528,-0.00000495,-0.00002843,0.00002053,-0.00000234,0.000014
 61,-0.00211278,-0.00037487,0.00035113,-0.00028236,0.00001791,0.0000543
 1,0.00008315,0.00000437,0.01078254,-0.00264444,0.00037965,0.00004426,-
 0.00011459,0.00000397,-0.00011674,0.00075927,-0.00000559,-0.00147957,-
 0.00050078,0.00014913,-0.00000465,0.00000210,-0.00000191,0.00000439,-0
 .00000016,0.00000234,-0.00013836,-0.00087773,0.00003775,-0.22395887,0.
 14379015,-0.01088447,-0.00392397,-0.00287677,-0.00070314,-0.01578454,0
 .02014304,-0.00123679,-0.00000078,0.00000563,0.00000004,-0.00000286,-0
 .00000156,-0.00000015,0.00000275,0.00000426,0.00000094,0.00000189,-0.0
 0000096,-0.00000105,0.00000191,-0.00000328,-0.00000020,-0.00000142,0.0
 0000228,0.00000028,-0.00000489,0.00000042,-0.00000066,0.00004196,0.000
 04288,-0.00000588,0.00000166,0.00000011,0.00000020,0.00000129,-0.00000
 101,-0.00000121,-0.00000293,0.00000301,0.00000132,-0.00000093,-0.00000
 032,0.00000187,-0.00000139,0.00000120,-0.00000074,0.00000368,0.0000005
 2,-0.00000143,0.00002712,0.00008836,0.00005754,0.23463702,-0.00003073,
 0.00037975,-0.00000132,-0.00028541,0.00330308,-0.00013122,-0.00001318,
 -0.00005626,-0.00000226,-0.00004031,-0.00092814,-0.00000434,-0.0000587
 8,0.00006682,-0.00000235,0.00008845,-0.00001061,0.00000304,0.00137225,
 0.00023093,0.00008250,0.00004156,0.00011289,0.00000401,-0.00000821,0.0
 0000721,-0.00000292,0.00001794,0.00000283,0.00000338,-0.00000822,-0.00
 008933,0.00000153,-0.00310258,-0.00459434,-0.00019672,0.00050023,-0.00
 046493,0.00003086,0.00001251,0.00003983,-0.00000165,0.02410517,-0.0167
 0951,0.00143728,0.00000027,-0.00008818,-0.00000025,-0.00038764,0.00084
 591,-0.00001809,0.00306927,-0.00210887,0.00017997,0.00000196,-0.000001
 77,0.00000211,-0.00000328,0.00000024,-0.00000130,-0.00075810,-0.000366
 66,-0.00004552,0.14305378,-0.18612836,0.00852129,-0.00264947,-0.000055
 58,-0.00016428,-0.00994535,0.01195934,-0.00058870,0.00000115,-0.000001
 96,0.00000079,0.00000151,-0.00000162,0.00000069,-0.00000192,-0.0000016
 6,0.00000017,-0.00000144,0.00000198,-0.00000179,-0.00000215,-0.0000088
 6,0.00000059,0.00000009,-0.00000533,0.00000043,-0.00000342,0.00000668,
 -0.00000018,-0.00002112,0.00000299,-0.00000101,-0.00000059,0.00000004,
 -0.00000016,0.00000012,0.00000031,-0.00000011,0.00000134,-0.00000079,-
 0.00000097,0.00000104,0.00000017,0.00000053,0.00000032,0.00000021,-0.0
 0000033,-0.00000183,-0.00000091,0.00000079,0.00012780,0.00005494,0.000
 00855,-0.15507678,0.19340201,0.00000031,0.00003070,0.00001323,-0.00008
 893,-0.00017096,-0.00018788,0.00000502,0.00001194,-0.00000163,-0.00000
 355,-0.00004296,0.00002238,-0.00000837,-0.00001107,0.00000886,-0.00000
 007,-0.00000794,-0.00003705,-0.00002097,-0.00000072,0.00062771,0.00001
 486,0.00002206,-0.00015575,0.00000199,-0.00000266,0.00000256,-0.000003
 72,-0.00000207,0.00000193,-0.00000349,0.00000407,-0.00000281,-0.000374
 09,-0.00014465,0.00610239,0.00003111,-0.00002772,-0.00000219,0.0000063
 1,0.00000968,0.00000448,0.00040335,-0.00019778,0.00447989,0.00000703,-
 0.00001287,-0.00002613,-0.00001758,0.00006000,0.00005013,0.00017778,-0
 .00006914,-0.00382476,-0.00000075,-0.00000006,0.00000005,0.00000065,0.
 00000161,0.,0.00004042,-0.00005006,-0.00077084,-0.01087492,0.00862096,
 -0.04210660,-0.00070069,-0.00018205,0.00764545,-0.00125912,0.00121761,
 0.00485914,0.00000048,0.00000092,-0.00000024,-0.00000106,-0.00000034,-
 0.00000040,0.00000100,0.00000007,-0.00000010,-0.00000040,0.00000060,-0
 .00000044,0.00000027,-0.00000022,0.00000363,-0.00000025,0.00000030,0.0
 0000834,-0.00000031,-0.00000021,-0.00000224,-0.00000649,0.00000199,0.0
 0014339,-0.00000030,-0.00000072,-0.00000020,0.00000103,0.00000052,0.00
 000005,-0.00000043,0.00000059,0.,-0.00000006,-0.00000119,0.00000063,-0
 .00000039,0.00000091,-0.00000042,0.00000049,-0.00000007,-0.00000014,0.
 00005768,0.00000664,-0.00091917,0.01230528,-0.00911567,0.02873441,-0.0
 0008837,-0.00007518,0.00000335,-0.00017910,-0.00016870,-0.00002050,-0.
 00005424,-0.00022173,-0.00000381,0.00002790,0.00013390,-0.00000081,0.0
 0007746,0.00020892,0.00000453,0.00014786,0.00008297,0.00000495,-0.0000
 4774,0.00025059,-0.00001823,-0.00009155,-0.00023210,-0.00000937,-0.000
 05181,0.00004416,-0.00001284,0.00005938,0.00001306,0.00001323,0.000041
 53,-0.00011833,0.00000820,0.00155705,-0.00072985,-0.00036847,-0.000041
 56,-0.00004943,0.00001060,-0.00011023,-0.00012213,-0.00001047,0.000468
 07,0.00062186,0.00005919,-0.00008591,0.00014502,-0.00000443,-0.0000246
 7,-0.00012394,-0.00001169,0.00012612,0.00017733,0.00008245,0.00001111,
 -0.00000586,0.00000603,-0.00001176,0.00000020,-0.00000627,-0.00151412,
 0.00004600,-0.00035214,-0.00175720,0.00402191,-0.00051644,-0.31898688,
 -0.08246945,-0.01694938,-0.01677966,-0.00970470,-0.00128275,0.00000291
 ,-0.00001255,0.00000073,0.00000747,0.00000131,0.00000198,-0.00000775,-
 0.00000914,-0.00000187,-0.00000530,0.00000311,-0.00000062,-0.00000617,
 -0.00000387,0.00000012,0.00000266,-0.00000998,-0.00000127,0.00000445,0
 .00000596,0.00000069,-0.00001275,-0.00002057,-0.00000284,-0.00000328,0
 .00000041,-0.00000039,-0.00000251,0.00000226,0.00000155,0.00000681,-0.
 00000678,-0.00000355,0.00000244,0.00000088,-0.00000240,0.00000279,-0.0
 0000193,0.00000113,-0.00000873,-0.00000173,0.00000363,0.00078900,-0.00
 021816,0.00033537,-0.00075837,-0.00054668,-0.00003976,0.33634553,-0.00
 018973,-0.00017332,-0.00001266,-0.00010026,0.00025001,-0.00000536,-0.0
 0001833,-0.00010926,-0.00000177,0.00022533,0.00002623,0.00001371,0.000
 00284,0.00010784,0.00000055,-0.00000235,0.00013284,-0.00000036,-0.0016
 1685,0.00052133,-0.00009547,-0.00003170,-0.00005165,-0.00000173,-0.000
 02772,0.00002170,-0.00000667,0.00002546,0.00000533,0.00000569,0.000031
 95,-0.00009309,0.00000459,-0.00029450,-0.00552276,-0.00003346,0.000163
 02,-0.00050646,0.00000806,-0.00002695,-0.00004715,-0.00000363,0.000433
 47,-0.00123957,0.00002671,-0.00005351,0.00004056,-0.00000298,0.0000413
 6,0.00006848,0.00000243,0.00016102,-0.00012714,0.00001094,0.00000517,-
 0.00000434,0.00000343,-0.00000515,0.00000048,-0.00000271,-0.03110111,-
 0.00487962,-0.00189726,0.00345946,-0.00265412,0.00020033,-0.08234333,-
 0.08817510,-0.00502846,0.02160938,0.01147760,0.00131605,0.00000223,-0.
 00000587,0.,0.00000403,0.00000006,0.00000184,-0.00000347,-0.00000437,-
 0.00000062,-0.00000192,0.00000169,0.00000010,-0.00000216,-0.00000065,0
 .00000031,0.00000094,-0.00000825,-0.00000066,0.00000535,-0.00000119,0.
 00000050,-0.00000979,0.00001433,-0.00000065,-0.00000078,0.00000050,0.0
 0000017,-0.00000139,0.00000193,0.00000008,0.00000305,-0.00000387,-0.00
 000198,0.00000076,0.00000044,-0.00000154,0.00000117,-0.00000147,0.0000
 0043,-0.00000336,-0.00000056,0.00000185,0.00045231,0.00121902,0.000030
 53,0.00093345,0.00041641,0.00005597,0.08891263,0.08839443,0.00000390,-
 0.00000544,-0.00016371,-0.00002122,-0.00000981,0.00013694,-0.00000302,
 -0.00001575,-0.00000448,-0.00000012,0.00000914,0.00003275,0.00000528,0
 .00001481,0.00000872,0.00000551,0.00000625,0.00007093,-0.00001906,0.00
 001452,0.00025734,-0.00001025,-0.00001596,0.00005680,-0.00000332,0.000
 00410,0.00000302,0.00000404,-0.00000024,0.00000358,0.00000385,-0.00000
 872,-0.00002182,-0.00036249,-0.00005821,0.00760733,0.00000926,-0.00000
 206,-0.00019701,-0.00000750,-0.00000795,-0.00000946,0.00005453,0.00003
 892,-0.00047682,-0.00000456,0.00000984,-0.00001379,-0.00001041,-0.0000
 0895,0.00014976,0.00008460,0.00001372,-0.00120611,-0.00000017,-0.00000
 129,0.,-0.00000100,0.00000101,-0.00000055,-0.00038749,-0.00001549,0.00
 438349,-0.00051833,0.00023383,0.00681682,-0.01693822,-0.00503209,-0.04
 120194,-0.00124991,-0.00058018,0.00417290,0.00000110,-0.00000056,-0.00
 000017,-0.00000049,-0.00000048,-0.00000026,-0.00000008,-0.00000142,-0.
 00000021,-0.00000097,0.00000151,-0.00000033,-0.00000056,-0.00000025,0.
 00000195,0.00000009,-0.00000078,0.00000289,-0.00000021,0.00000060,0.00
 000970,-0.00000280,-0.00000148,0.00003252,-0.00000080,-0.00000069,-0.0
 0000042,0.00000069,0.00000095,0.00000051,0.00000046,-0.00000021,-0.000
 00032,0.00000065,-0.00000094,0.00000010,0.,0.00000075,-0.00000015,-0.0
 0000074,-0.00000035,0.00000008,0.00032924,-0.00000597,-0.00459680,-0.0
 0003944,-0.00003269,-0.00010191,0.01879450,0.00544603,0.02805045,0.000
 02717,-0.00021614,-0.00000307,-0.00022550,0.00029012,-0.00002045,-0.00
 000953,-0.00004321,-0.00000035,0.00008545,0.00016206,-0.00000258,0.000
 02160,0.00004299,0.00000179,-0.00002835,0.00007947,-0.00000142,0.00012
 242,0.00002113,0.00008152,0.00002661,-0.00011975,0.00000074,-0.0000107
 5,0.00000895,-0.00000281,0.00001213,0.00000373,0.00000231,0.00002395,-
 0.00002608,0.00000317,-0.00129276,0.00027377,-0.00005735,-0.00018994,0
 .00030940,-0.00001856,-0.00001744,-0.00003753,-0.00000065,-0.00540922,
 -0.00087209,-0.00078073,-0.00002892,0.00004219,-0.00000331,-0.00046084
 ,-0.00021667,-0.00000064,0.00094885,-0.00155393,0.00003414,0.00000239,
 -0.00000112,0.00000116,-0.00000230,0.00000016,-0.00000092,-0.00334894,
 0.00315824,-0.00060865,-0.00150854,-0.03125234,-0.00037305,0.00980957,
 0.02446409,0.00039115,-0.07386196,-0.05796810,-0.00214027,0.00000040,-
 0.00000288,0.00000013,0.00000144,0.00000062,0.00000002,-0.00000143,-0.
 00000224,-0.00000039,-0.00000092,0.00000076,0.00000054,-0.00000058,0.0
 0000319,-0.00000044,0.00000086,-0.00000148,-0.00000028,0.00000413,-0.0
 0000266,0.00000043,-0.00003023,-0.00015777,-0.00000182,-0.00000082,0.,
 -0.00000019,-0.00000069,0.00000035,0.00000060,0.00000151,-0.00000142,-
 0.00000075,0.00000064,0.00000021,-0.00000103,0.00000071,-0.00000070,0.
 00000036,-0.00000212,-0.00000048,0.00000057,0.00034168,0.00106012,0.00
 002419,0.00120403,0.00055042,0.00035066,0.00094914,-0.00064004,0.00028
 549,0.07284712,-0.00005482,-0.00015199,-0.00000507,-0.00032144,0.00009
 129,-0.00001920,-0.00004484,-0.00017595,-0.00000333,-0.00003351,0.0000
 5460,-0.00000281,0.00007280,0.00016790,0.00000472,0.00008817,0.0000706
 9,0.00000622,0.00014432,0.00002023,0.00000896,-0.00008371,-0.00015564,
 -0.00000540,-0.00004149,0.00003600,-0.00000964,0.00004921,0.00001106,0
 .00001060,0.00002700,-0.00008447,0.00000459,0.00042650,0.00058972,0.00
 002678,-0.00011589,0.00012025,-0.00000553,-0.00008621,-0.00010203,-0.0
 0000842,-0.00171714,0.00134107,-0.00010691,-0.00006053,0.00011646,-0.0
 0000364,-0.00015833,-0.00016555,-0.00001009,0.00078987,-0.00025791,0.0
 0004760,0.00000911,-0.00000424,0.00000440,-0.00000955,0.00000023,-0.00
 000464,0.00378191,-0.00089868,0.00022282,-0.00007016,-0.00466102,-0.00
 001343,-0.00693001,-0.01537515,-0.00042995,-0.05788455,-0.33468955,-0.
 00375323,0.00000184,-0.00001074,0.00000059,0.00000556,0.00000160,0.000
 00065,-0.00000607,-0.00000813,-0.00000149,-0.00000399,0.00000263,0.000
 00027,-0.00000550,-0.00000321,0.00000011,0.00000224,-0.00000807,-0.000
 00093,0.00000206,0.00000768,0.00000103,-0.00001295,-0.00005896,-0.0000
 0106,-0.00000313,0.00000014,-0.00000064,-0.00000229,0.00000170,0.00000
 194,0.00000571,-0.00000564,-0.00000268,0.00000250,0.00000064,-0.000002
 46,0.00000239,-0.00000162,0.00000112,-0.00000767,-0.00000174,0.0000027
 1,-0.00041511,-0.00072584,-0.00002583,-0.00016728,0.00078913,-0.000006
 02,0.00018031,0.00090858,0.00001198,0.06264465,0.35321452,-0.00000286,
 -0.00001481,0.00006334,-0.00002158,0.00001747,0.00013154,0.00000030,-0
 .00000245,-0.00000052,-0.00000287,0.00001000,0.00013272,0.00000203,0.0
 0000203,-0.00000790,0.00000153,0.00000531,-0.00003906,0.00008251,0.000
 00455,-0.00122084,-0.00000003,-0.00000764,0.00001651,-0.00000090,0.000
 00146,0.00000423,0.00000064,-0.00000036,0.00000090,0.00000061,-0.00000
 122,-0.00000431,-0.00006093,0.00001721,-0.00032696,-0.00002072,0.00002
 021,0.00014023,-0.00000047,-0.00000244,-0.00000570,-0.00078152,-0.0000
 6271,0.00747300,-0.00000347,0.00000229,0.00001915,-0.00000231,-0.00001
 387,-0.00043421,0.00004020,-0.00009349,0.00032898,-0.00000027,-0.00000
 038,-0.00000017,-0.00000006,0.00000115,0.00000017,-0.00060571,0.000183
 98,0.00671172,-0.00034610,-0.00189069,0.00426613,0.00035336,0.00145577
 ,0.00391077,-0.00213261,-0.00375169,-0.03956453,0.00000087,-0.00000006
 ,0.00000009,-0.00000072,-0.00000077,-0.00000032,0.00000012,-0.00000068
 ,-0.00000031,-0.00000063,0.00000010,-0.00000034,0.00000013,0.00000022,
 0.00000814,-0.00000010,-0.00000004,-0.00000111,0.00000033,-0.00000006,
 -0.00000114,-0.00000147,-0.00000972,-0.00000672,-0.00000049,-0.0000005
 5,-0.00000025,0.00000044,0.00000050,0.00000024,0.00000003,0.00000006,-
 0.00000007,0.00000030,-0.00000092,0.00000016,0.,0.00000064,-0.00000030
 ,-0.00000018,-0.00000005,-0.00000009,0.00002193,0.00006334,-0.00002219
 ,0.00035185,0.00003532,-0.00456776,0.00028807,-0.00003233,-0.00380232,
 0.00284074,0.00406534,0.02679909\\-0.00000014,-0.00000030,0.00000085,-
 0.00000102,-0.00000064,0.00000159,0.00000073,-0.00000021,-0.00000018,-
 0.00000032,0.00000042,-0.00000083,0.00000037,0.00000010,0.00000013,-0.
 00000008,0.00000022,0.00000030,-0.00000043,0.00000005,-0.00000024,-0.0
 0000009,-0.00000009,-0.00000056,0.00000106,0.00000018,-0.00000026,0.00
 000057,-0.00000017,0.00000133,0.00000034,-0.00000042,0.00000059,-0.000
 00084,-0.00000004,-0.00000048,-0.00000054,-0.00000036,0.00000067,0.000
 00049,0.00000027,-0.00000085,-0.00000088,-0.00000009,0.00000013,0.0000
 0020,0.00000043,-0.00000115,-0.00000057,-0.00000026,0.00000128,-0.0000
 0113,-0.00000028,0.00000104,0.00000029,0.00000025,-0.00000074,0.000001
 47,-0.00000049,0.00000163,-0.00000071,0.00000062,-0.00000130,-0.000001
 16,-0.00000003,-0.00000008,-0.00000099,0.00000023,-0.00000154,-0.00000
 135,0.00000029,-0.00000092,0.00000147,0.00000007,-0.00000002,0.0000014
 3,0.00000030,-0.00000078,0.00000057,-0.00000028,0.00000110,0.00000004,
 -0.00000046,0.00000132,0.00000022,-0.00000031,0.00000123,0.00000058,0.
 00000048,-0.00000132,0.00000017,0.00000055,-0.00000178,-0.00000065,-0.
 00000070,0.00000191,-0.00000010,0.00000010,-0.00000028,-0.00000014,0.0
 0000034,-0.00000114,0.00000059,0.00000041,-0.00000118,0.00000163,-0.00
 000041,0.00000159,0.00000203,-0.00000031,0.00000135,0.00000140,-0.0000
 0062,0.00000230,-0.00000062,0.00000047,-0.00000180,-0.00000139,-0.0000
 0018,0.00000040,-0.00000106,0.00000062,-0.00000219,-0.00000146,0.00000
 026,-0.00000109\\\@
 The archive entry for this job was punched.


 "MATHEMATICS IS THE ART OF GIVING THE SAME NAME
 TO DIFFERENT THINGS."
                    - H. POINCARE
 Job cpu time:       0 days 13 hours  7 minutes 19.7 seconds.
 Elapsed time:       0 days  1 hours  5 minutes 48.3 seconds.
 File lengths (MBytes):  RWF=   1187 Int=      0 D2E=      0 Chk=     63 Scr=      1
 Normal termination of Gaussian DV at Thu Feb  6 09:08:56 2020.
