 Set GAUSS_MDEF to "100GB".
 Set GAUSS_PDEF to "32".
 Entering Gaussian System, Link 0=gdv
 Initial command:
 /opt/unmanaged/gaussian/gdv-20170407-i10+/gdv/l1.exe "/scratch/cmyers7/6672/Gau-1439941.inp" -scrdir="/scratch/cmyers7/6672/"
 Default is to use a total of  32 processors:
                               32 via shared-memory
                                1 via Linda
 Entering Link 1 = /opt/unmanaged/gaussian/gdv-20170407-i10+/gdv/l1.exe PID=   1439942.
  
 Copyright (c) 1988-2017, Gaussian, Inc.  All Rights Reserved.
  
 This is the private, development version of
 the Gaussian(R) DV system of programs. It is based on
 the Gaussian(R) 16 system (copyright 2016, Gaussian, Inc.),
 the Gaussian(R) 09 system (copyright 2009, Gaussian, Inc.),
 the Gaussian(R) 03 system (copyright 2003, Gaussian, Inc.),
 the Gaussian(R) 98 system (copyright 1998, Gaussian, Inc.),
 the Gaussian(R) 94 system (copyright 1995, Gaussian, Inc.),
 the Gaussian 92(TM) system (copyright 1992, Gaussian, Inc.),
 the Gaussian 90(TM) system (copyright 1990, Gaussian, Inc.),
 the Gaussian 88(TM) system (copyright 1988, Gaussian, Inc.),
 the Gaussian 86(TM) system (copyright 1986, Carnegie Mellon
 University), and the Gaussian 82(TM) system (copyright 1983,
 Carnegie Mellon University). Gaussian is a federally registered
 trademark of Gaussian, Inc.
  
 This software contains proprietary and confidential information,
 including trade secrets, belonging to Gaussian, Inc.
  
 This software is provided under written license and may be
 used, copied, transmitted, or stored only in accord with that
 written license.
  
 The following legend is applicable only to US Government
 contracts under FAR:
  
                    RESTRICTED RIGHTS LEGEND
  
 Use, reproduction and disclosure by the US Government is
 subject to restrictions as set forth in subparagraphs (a)
 and (c) of the Commercial Computer Software - Restricted
 Rights clause in FAR 52.227-19.
  
 Gaussian, Inc.
 340 Quinnipiac St., Bldg. 40, Wallingford CT 06492
  
  
 ---------------------------------------------------------------
 Warning -- This program may not be used in any manner that
 competes with the business of Gaussian, Inc. or will provide
 assistance to any competitor of Gaussian, Inc.  The licensee
 of this program is prohibited from giving any competitor of
 Gaussian, Inc. access to this program.  By using this program,
 the user acknowledges that Gaussian, Inc. is engaged in the
 business of creating and licensing software in the field of
 computational chemistry and represents and warrants to the
 licensee that it is not a competitor of Gaussian, Inc. and that
 it will not use this program in any manner prohibited above.
 ---------------------------------------------------------------
  

 Cite this work as:
 Gaussian Development Version, Revision I.10+,
 M. J. Frisch, G. W. Trucks, H. B. Schlegel, G. E. Scuseria, 
 M. A. Robb, J. R. Cheeseman, G. Scalmani, V. Barone, 
 G. A. Petersson, H. Nakatsuji, X. Li, M. Caricato, A. V. Marenich, 
 J. Bloino, B. G. Janesko, R. Gomperts, B. Mennucci, H. P. Hratchian, 
 J. V. Ortiz, A. F. Izmaylov, J. L. Sonnenberg, D. Williams-Young, 
 F. Ding, F. Lipparini, F. Egidi, J. Goings, B. Peng, A. Petrone, 
 T. Henderson, D. Ranasinghe, V. G. Zakrzewski, J. Gao, N. Rega, 
 G. Zheng, W. Liang, M. Hada, M. Ehara, K. Toyota, R. Fukuda, 
 J. Hasegawa, M. Ishida, T. Nakajima, Y. Honda, O. Kitao, H. Nakai, 
 T. Vreven, K. Throssell, J. A. Montgomery, Jr., J. E. Peralta, 
 F. Ogliaro, M. J. Bearpark, J. J. Heyd, E. N. Brothers, K. N. Kudin, 
 V. N. Staroverov, T. A. Keith, R. Kobayashi, J. Normand, 
 K. Raghavachari, A. P. Rendell, J. C. Burant, S. S. Iyengar, 
 J. Tomasi, M. Cossi, J. M. Millam, M. Klene, C. Adamo, R. Cammi, 
 J. W. Ochterski, R. L. Martin, K. Morokuma, O. Farkas, 
 J. B. Foresman, and D. J. Fox, Gaussian, Inc., Wallingford CT, 2016.
 
 *******************************************
 Gaussian DV:  ES64L-GDVRevI.10+ 27-Mar-2017
                 26-Jul-2023 
 *******************************************
 %chk=phenolate_gs.chk
 ----------------------------------------------------------------------
 # CAM-B3LYP/6-31+G* Symmetry=(Loose) nosymm freq=(saveNM,HPmodes) Inte
 gral=Fine
 ----------------------------------------------------------------------
 1/10=4,30=1,38=1/1,3;
 2/12=2,15=1,17=4,18=3,40=1/2;
 3/5=1,6=6,7=11,11=2,25=1,30=1,71=2,74=-40,75=-4,140=1/1,2,3;
 4//1;
 5/5=2,38=5,98=1/2;
 8/6=4,10=90,11=11/1;
 11/6=1,8=1,9=11,15=111,16=1,31=1/1,2,10;
 10/6=1,31=1/2;
 6/7=2,8=2,9=2,10=2,28=1/1;
 7/8=11,10=1,25=1,30=1,92=1/1,2,3,16;
 1/10=4,30=1/3;
 99//99;
 ----------------------------
 phenoxy radical optimization
 ----------------------------
 Symbolic Z-matrix:
 Charge = -1 Multiplicity = 1
 C                     1.07268   0.        0. 
 C                     0.28794   1.20908   0. 
 C                    -1.09794   1.19763   0. 
 C                    -1.82533   0.        0. 
 C                    -1.09794  -1.19763   0. 
 C                     0.28794  -1.20908   0. 
 O                     2.34349   0.        0. 
 H                     0.83465   2.15057   0. 
 H                    -1.6342    2.14825   0. 
 H                    -2.91286   0.        0. 
 H                    -1.6342   -2.14825   0. 
 H                     0.83465  -2.15057   0. 
 

 GradGradGradGradGradGradGradGradGradGradGradGradGradGradGradGradGradGrad
 Berny optimization.
 Initialization pass.
 Trust Radius=3.00D-01 FncErr=1.00D-07 GrdErr=1.00D-07 EigMax=2.50D+02 EigMin=1.00D-04
 Number of steps in this run=      2 maximum allowed number of steps=      2.
 GradGradGradGradGradGradGradGradGradGradGradGradGradGradGradGradGradGrad

                          Input orientation:                          
 ---------------------------------------------------------------------
 Center     Atomic      Atomic             Coordinates (Angstroms)
 Number     Number       Type             X           Y           Z
 ---------------------------------------------------------------------
      1          6           0        1.072680    0.000000    0.000000
      2          6           0        0.287940    1.209080    0.000000
      3          6           0       -1.097940    1.197630    0.000000
      4          6           0       -1.825330    0.000000    0.000000
      5          6           0       -1.097940   -1.197630    0.000000
      6          6           0        0.287940   -1.209080    0.000000
      7          8           0        2.343490    0.000000    0.000000
      8          1           0        0.834650    2.150570    0.000000
      9          1           0       -1.634200    2.148250    0.000000
     10          1           0       -2.912860    0.000000    0.000000
     11          1           0       -1.634200   -2.148250    0.000000
     12          1           0        0.834650   -2.150570    0.000000
 ---------------------------------------------------------------------
                    Distance matrix (angstroms):
                    1          2          3          4          5
     1  C    0.000000
     2  C    1.441420   0.000000
     3  C    2.479094   1.385927   0.000000
     4  C    2.898010   2.434704   1.401219   0.000000
     5  C    2.479094   2.777214   2.395260   1.401219   0.000000
     6  C    1.441420   2.418160   2.777214   2.434704   1.385927
     7  O    1.270810   2.384777   3.643866   4.168820   3.643866
     8  H    2.163703   1.088713   2.154762   3.420591   3.865921
     9  H    3.455746   2.139314   1.091445   2.156736   3.388582
    10  H    3.985540   3.421549   2.174454   1.087530   2.174454
    11  H    3.455746   3.868629   3.388582   2.156736   1.091445
    12  H    2.163703   3.403842   3.865921   3.420591   2.154762
                    6          7          8          9         10
     6  C    0.000000
     7  O    2.384777   0.000000
     8  H    3.403842   2.627080   0.000000
     9  H    3.868629   4.520730   2.468851   0.000000
    10  H    3.421549   5.256350   4.320739   2.499990   0.000000
    11  H    2.139314   4.520730   4.957325   4.296500   2.499990
    12  H    1.088713   2.627080   4.301140   4.957325   4.320739
                   11         12
    11  H    0.000000
    12  H    2.468851   0.000000
 Symmetry turned off by external request.
 Stoichiometry    C6H5O(1-)
 Framework group  C2V[C2(HCCO),SGV(C4H4)]
 Deg. of freedom    11
 Full point group                 C2V     NOp   4
 Rotational constants (GHZ):           5.7342719           2.6927970           1.8323370
 Standard basis: 6-31+G(d) (6D, 7F)
   143 basis functions,   244 primitive gaussians,   143 cartesian basis functions
    25 alpha electrons       25 beta electrons
       nuclear repulsion energy       259.6945219925 Hartrees.
 NAtoms=   12 NActive=   12 NUniq=   12 SFac= 1.00D+00 NAtFMM=   60 NAOKFM=F Big=F
 Integral buffers will be    131072 words long.
 Raffenetti 2 integral format.
 Two-electron integral symmetry is turned off.
 One-electron integrals computed using PRISM.
 NBasis=   143 RedAO= T EigKep=  5.84D-06  NBF=   143
 NBsUse=   143 1.00D-06 EigRej= -1.00D+00 NBFU=   143
 ExpMin= 4.38D-02 ExpMax= 5.48D+03 ExpMxC= 8.25D+02 IAcc=2 IRadAn=         4 AccDes= 0.00D+00
 Harris functional with IExCor=20419 and IRadAn=       4 diagonalized for initial guess.
 HarFok:  IExCor=20419 AccDes= 0.00D+00 IRadAn=         4 IDoV= 1 UseB2=F ITyADJ=14
 ICtDFT=  3500011 ScaDFX=  1.000000  1.000000  1.000000  1.000000
 FoFCou: FMM=F IPFlag=           0 FMFlag=      100000 FMFlg1=           0
         NFxFlg=           0 DoJE=T BraDBF=F KetDBF=T FulRan=T
         wScrn=  0.000000 ICntrl=       500 IOpCl=  0 I1Cent=   200000004 NGrid=           0
         NMat0=    1 NMatS0=      1 NMatT0=    0 NMatD0=    1 NMtDS0=    0 NMtDT0=    0
 Symmetry not used in FoFCou.
 Keep R1 ints in memory in canonical form, NReq=136878625.
 Requested convergence on RMS density matrix=1.00D-08 within 128 cycles.
 Requested convergence on MAX density matrix=1.00D-06.
 Requested convergence on             energy=1.00D-06.
 No special actions if energy rises.
 SCF Done:  E(RCAM-B3LYP) =  -306.756695279     A.U. after   14 cycles
            NFock= 14  Conv=0.55D-08     -V/T= 2.0092
 DoSCS=F DFT=T ScalE2(SS,OS)=  1.000000  1.000000
 Range of M.O.s used for correlation:     1   143
 NBasis=   143 NAE=    25 NBE=    25 NFC=     0 NFV=     0
 NROrb=    143 NOA=    25 NOB=    25 NVA=   118 NVB=   118

 **** Warning!!: The largest alpha MO coefficient is  0.11428250D+03

 Symmetrizing basis deriv contribution to polar:
 IMax=3 JMax=2 DiffMx= 0.00D+00
 G2DrvN: will do    13 centers at a time, making    1 passes.
 Calling FoFCou, ICntrl=  3107 FMM=F I1Cent=   0 AccDes= 0.00D+00.
 End of G2Drv F.D. properties file   721 does not exist.
 End of G2Drv F.D. properties file   722 does not exist.
 End of G2Drv F.D. properties file   788 does not exist.
          IDoAtm=111111111111
          Differentiating once with respect to electric field.
                with respect to dipole field.
          Differentiating once with respect to nuclear coordinates.
 Keep R1 ints in memory in canonical form, NReq=136831640.
          There are    39 degrees of freedom in the 1st order CPHF.  IDoFFX=6 NUNeed=     3.
     36 vectors produced by pass  0 Test12= 7.56D-15 2.56D-09 XBig12= 8.73D+01 6.42D+00.
 AX will form    36 AO Fock derivatives at one time.
     36 vectors produced by pass  1 Test12= 7.56D-15 2.56D-09 XBig12= 1.43D+01 8.57D-01.
     36 vectors produced by pass  2 Test12= 7.56D-15 2.56D-09 XBig12= 1.83D-01 8.83D-02.
     36 vectors produced by pass  3 Test12= 7.56D-15 2.56D-09 XBig12= 1.39D-03 7.73D-03.
     36 vectors produced by pass  4 Test12= 7.56D-15 2.56D-09 XBig12= 1.02D-05 7.28D-04.
     36 vectors produced by pass  5 Test12= 7.56D-15 2.56D-09 XBig12= 5.02D-08 5.41D-05.
     33 vectors produced by pass  6 Test12= 7.56D-15 2.56D-09 XBig12= 2.08D-10 3.54D-06.
     11 vectors produced by pass  7 Test12= 7.56D-15 2.56D-09 XBig12= 6.33D-13 1.28D-07.
      3 vectors produced by pass  8 Test12= 7.56D-15 2.56D-09 XBig12= 2.02D-15 6.76D-09.
 InvSVY:  IOpt=1 It=  1 EMax= 2.66D-15
 Solved reduced A of dimension   263 with    39 vectors.
 Isotropic polarizability for W=    0.000000       86.61 Bohr**3.
 End of Minotr F.D. properties file   721 does not exist.
 End of Minotr F.D. properties file   722 does not exist.
 End of Minotr F.D. properties file   788 does not exist.

 **********************************************************************

            Population analysis using the SCF Density.

 **********************************************************************

 Alpha  occ. eigenvalues --  -18.97104 -10.12977 -10.10337 -10.10336 -10.08690
 Alpha  occ. eigenvalues --  -10.07521 -10.07521  -0.86876  -0.74800  -0.65239
 Alpha  occ. eigenvalues --   -0.61725  -0.50361  -0.48236  -0.40733  -0.34864
 Alpha  occ. eigenvalues --   -0.34774  -0.31450  -0.28922  -0.27566  -0.24505
 Alpha  occ. eigenvalues --   -0.23662  -0.20212  -0.14011  -0.10171  -0.05762
 Alpha virt. eigenvalues --    0.15874   0.16823   0.17755   0.19740   0.19824
 Alpha virt. eigenvalues --    0.20000   0.22125   0.22214   0.22557   0.24563
 Alpha virt. eigenvalues --    0.25408   0.26146   0.26679   0.29053   0.29146
 Alpha virt. eigenvalues --    0.29809   0.30378   0.30839   0.32515   0.32793
 Alpha virt. eigenvalues --    0.33672   0.34120   0.36559   0.37990   0.38635
 Alpha virt. eigenvalues --    0.39177   0.40126   0.41642   0.43246   0.46164
 Alpha virt. eigenvalues --    0.48378   0.49019   0.49488   0.50124   0.52241
 Alpha virt. eigenvalues --    0.53878   0.56278   0.56743   0.60470   0.61646
 Alpha virt. eigenvalues --    0.68973   0.81491   0.83274   0.84107   0.88241
 Alpha virt. eigenvalues --    0.91070   0.93898   0.94709   0.94969   0.97374
 Alpha virt. eigenvalues --    0.97644   0.97868   1.01358   1.04551   1.06868
 Alpha virt. eigenvalues --    1.11154   1.15418   1.15939   1.16722   1.18769
 Alpha virt. eigenvalues --    1.23389   1.23738   1.30126   1.31056   1.34444
 Alpha virt. eigenvalues --    1.37768   1.39373   1.48496   1.49802   1.50065
 Alpha virt. eigenvalues --    1.52588   1.59109   1.60139   1.64987   1.66143
 Alpha virt. eigenvalues --    1.70581   1.71863   1.72831   1.73708   1.76130
 Alpha virt. eigenvalues --    1.92130   2.03318   2.06633   2.10213   2.14717
 Alpha virt. eigenvalues --    2.17615   2.22572   2.25576   2.26569   2.28426
 Alpha virt. eigenvalues --    2.30423   2.33770   2.39670   2.41111   2.41615
 Alpha virt. eigenvalues --    2.51037   2.54378   2.57611   2.59458   2.81527
 Alpha virt. eigenvalues --    2.84232   2.88302   2.89291   2.94651   2.99535
 Alpha virt. eigenvalues --    3.00416   3.11138   3.11196   3.41183   3.41857
 Alpha virt. eigenvalues --    3.64281   4.46943   4.48120   4.48769   4.59196
 Alpha virt. eigenvalues --    4.62785   4.75459   5.06585
          Condensed to atoms (all electrons):
               1          2          3          4          5          6
     1  C    5.834116  -0.256593   0.090109  -0.049794   0.090109  -0.256593
     2  C   -0.256593  10.036467  -0.336314  -0.190928   0.610028  -3.871128
     3  C    0.090109  -0.336314   5.525957   0.434268  -0.307966   0.610028
     4  C   -0.049794  -0.190928   0.434268   5.529204   0.434268  -0.190928
     5  C    0.090109   0.610028  -0.307966   0.434268   5.525957  -0.336314
     6  C   -0.256593  -3.871128   0.610028  -0.190928  -0.336314  10.036467
     7  O    0.643954  -0.301043   0.012373  -0.018109   0.012373  -0.301043
     8  H    0.074074   0.272289  -0.117342   0.007180  -0.017759   0.076861
     9  H   -0.021058   0.021745   0.280879   0.013105   0.020828  -0.031410
    10  H   -0.013787   0.008700  -0.008037   0.302509  -0.008037   0.008700
    11  H   -0.021058  -0.031410   0.020828   0.013105   0.280879   0.021745
    12  H    0.074074   0.076861  -0.017759   0.007180  -0.117342   0.272289
               7          8          9         10         11         12
     1  C    0.643954   0.074074  -0.021058  -0.013787  -0.021058   0.074074
     2  C   -0.301043   0.272289   0.021745   0.008700  -0.031410   0.076861
     3  C    0.012373  -0.117342   0.280879  -0.008037   0.020828  -0.017759
     4  C   -0.018109   0.007180   0.013105   0.302509   0.013105   0.007180
     5  C    0.012373  -0.017759   0.020828  -0.008037   0.280879  -0.117342
     6  C   -0.301043   0.076861  -0.031410   0.008700   0.021745   0.272289
     7  O    8.719548  -0.007431  -0.000779   0.000127  -0.000779  -0.007431
     8  H   -0.007431   0.573638  -0.005995  -0.000147   0.000015  -0.000168
     9  H   -0.000779  -0.005995   0.596361  -0.005043  -0.000206   0.000015
    10  H    0.000127  -0.000147  -0.005043   0.591121  -0.005043  -0.000147
    11  H   -0.000779   0.000015  -0.000206  -0.005043   0.596361  -0.005995
    12  H   -0.007431  -0.000168   0.000015  -0.000147  -0.005995   0.573638
 Mulliken charges:
               1
     1  C   -0.187553
     2  C   -0.038674
     3  C   -0.187025
     4  C   -0.291063
     5  C   -0.187025
     6  C   -0.038674
     7  O   -0.751759
     8  H    0.144786
     9  H    0.131558
    10  H    0.129083
    11  H    0.131558
    12  H    0.144786
 Sum of Mulliken charges =  -1.00000
 Mulliken charges with hydrogens summed into heavy atoms:
               1
     1  C   -0.187553
     2  C    0.106112
     3  C   -0.055467
     4  C   -0.161979
     5  C   -0.055467
     6  C    0.106112
     7  O   -0.751759
 APT charges:
               1
     1  C    0.816169
     2  C   -0.304941
     3  C    0.230657
     4  C   -0.472656
     5  C    0.230657
     6  C   -0.304941
     7  O   -1.111064
     8  H   -0.008911
     9  H   -0.030389
    10  H   -0.005280
    11  H   -0.030389
    12  H   -0.008911
 Sum of APT charges =  -1.00000
 APT charges with hydrogens summed into heavy atoms:
               1
     1  C    0.816169
     2  C   -0.313853
     3  C    0.200268
     4  C   -0.477936
     5  C    0.200268
     6  C   -0.313853
     7  O   -1.111064
 Electronic spatial extent (au):  <R**2>=            672.7179
 Charge=             -1.0000 electrons
 Dipole moment (field-independent basis, Debye):
    X=             -4.8966    Y=              0.0000    Z=              0.0000  Tot=              4.8966
 Quadrupole moment (field-independent basis, Debye-Ang):
   XX=            -66.2772   YY=            -46.1474   ZZ=            -49.1351
   XY=              0.0000   XZ=              0.0000   YZ=              0.0000
 Traceless Quadrupole moment (field-independent basis, Debye-Ang):
   XX=            -12.4240   YY=              7.7058   ZZ=              4.7182
   XY=              0.0000   XZ=              0.0000   YZ=              0.0000
 Octapole moment (field-independent basis, Debye-Ang**2):
  XXX=            -37.0790  YYY=             -0.0000  ZZZ=              0.0000  XYY=              1.6170
  XXY=              0.0000  XXZ=              0.0000  XZZ=              6.3220  YZZ=              0.0000
  YYZ=             -0.0000  XYZ=             -0.0000
 Hexadecapole moment (field-independent basis, Debye-Ang**3):
 XXXX=           -722.3512 YYYY=           -342.5395 ZZZZ=            -71.3021 XXXY=              0.0000
 XXXZ=              0.0000 YYYX=              0.0000 YYYZ=             -0.0000 ZZZX=              0.0000
 ZZZY=              0.0000 XXYY=           -157.4490 XXZZ=           -121.2802 YYZZ=            -78.5846
 XXYZ=             -0.0000 YYXZ=              0.0000 ZZXY=              0.0000
 N-N= 2.596945219925D+02 E-N=-1.242711811114D+03  KE= 3.039487072646D+02
  Exact polarizability: 113.867   0.000  91.709  -0.000  -0.000  54.258
 Approx polarizability: 136.564  -0.000 104.905  -0.000  -0.000  62.192
 Calling FoFJK, ICntrl=    100127 FMM=F ISym2X=0 I1Cent= 0 IOpClX= 0 NMat=1 NMatS=1 NMatT=0.
 Full mass-weighted force constant matrix:
 Low frequencies ---    0.0004    0.0005    0.0010    7.3291    8.2672    8.8311
 Low frequencies ---  193.4264  436.2772  451.8323
 Diagonal vibrational polarizability:
       12.5802966       2.0728068       9.8905285
 Harmonic frequencies (cm**-1), IR intensities (KM/Mole), Raman scattering
 activities (A**4/AMU), depolarization ratios for plane and unpolarized
 incident light, reduced masses (AMU), force constants (mDyne/A),
 and normal coordinates:
                           1         2         3         4         5
                           A         A         A         A         A
       Frequencies ---   193.4262  436.2771  451.8322  511.0825  537.5664
    Reduced masses ---     5.1286    3.2230    5.8988    2.2224    8.0759
   Force constants ---     0.1131    0.3614    0.7095    0.3420    1.3750
    IR Intensities ---     1.3728    0.0000    0.8495   28.7600    9.2290
 Coord Atom Element:
   1     1     6          0.00000  -0.00000   0.00000   0.00000   0.31881
   2     1     6          0.00000  -0.00000  -0.22349   0.00000   0.00000
   3     1     6         -0.08140  -0.00000  -0.00000   0.19957   0.00000
   1     2     6          0.00000  -0.00000   0.04304  -0.00000  -0.05430
   2     2     6         -0.00000  -0.00000  -0.24232   0.00000  -0.21164
   3     2     6         -0.29161   0.23133  -0.00000   0.04569  -0.00000
   1     3     6         -0.00000   0.00000   0.10266  -0.00000  -0.12993
   2     3     6         -0.00000   0.00000   0.03939  -0.00000  -0.17809
   3     3     6          0.00328  -0.21737   0.00000  -0.11059   0.00000
   1     4     6         -0.00000   0.00000  -0.00000  -0.00000  -0.38685
   2     4     6          0.00000   0.00000   0.09635  -0.00000  -0.00000
   3     4     6          0.26598  -0.00000   0.00000   0.18583  -0.00000
   1     5     6         -0.00000   0.00000  -0.10266   0.00000  -0.12993
   2     5     6         -0.00000   0.00000   0.03939   0.00000   0.17809
   3     5     6          0.00328   0.21737  -0.00000  -0.11059   0.00000
   1     6     6          0.00000   0.00000  -0.04304   0.00000  -0.05430
   2     6     6          0.00000  -0.00000  -0.24232   0.00000   0.21164
   3     6     6         -0.29161  -0.23133   0.00000   0.04569  -0.00000
   1     7     8          0.00000  -0.00000   0.00000   0.00000   0.38208
   2     7     8         -0.00000   0.00000   0.41990  -0.00000  -0.00000
   3     7     8          0.30570  -0.00000   0.00000  -0.07417  -0.00000
   1     8     1          0.00000   0.00000   0.26316  -0.00000  -0.34224
   2     8     1          0.00000  -0.00000  -0.37398   0.00000  -0.03526
   3     8     1         -0.41583   0.38964  -0.00000  -0.40486   0.00000
   1     9     1         -0.00000   0.00000   0.26240  -0.00000   0.10164
   2     9     1         -0.00000   0.00000   0.12785  -0.00000  -0.04610
   3     9     1          0.04615  -0.49742   0.00000  -0.53087   0.00000
   1    10     1         -0.00000   0.00000  -0.00000  -0.00000  -0.38520
   2    10     1          0.00000  -0.00000   0.17467  -0.00000  -0.00000
   3    10     1          0.55587   0.00000   0.00000   0.00535  -0.00000
   1    11     1          0.00000  -0.00000  -0.26240  -0.00000   0.10164
   2    11     1         -0.00000   0.00000   0.12785   0.00000   0.04610
   3    11     1          0.04615   0.49742  -0.00000  -0.53087   0.00000
   1    12     1         -0.00000  -0.00000  -0.26316   0.00000  -0.34224
   2    12     1          0.00000  -0.00000  -0.37398   0.00000   0.03526
   3    12     1         -0.41583  -0.38964   0.00000  -0.40486  -0.00000
                           6         7         8         9        10
                           A         A         A         A         A
       Frequencies ---   623.5978  693.5783  720.8369  810.7552  840.6000
    Reduced masses ---     6.5272    1.9693    1.5124    1.2402    5.2477
   Force constants ---     1.4955    0.5581    0.4630    0.4803    2.1847
    IR Intensities ---     0.7206   34.4531   50.1436    0.0000    0.5386
 Coord Atom Element:
   1     1     6          0.00000  -0.00000   0.00000  -0.00000   0.13966
   2     1     6          0.14603   0.00000  -0.00000   0.00000  -0.00000
   3     1     6          0.00000  -0.10808   0.15087   0.00000  -0.00000
   1     2     6          0.25066   0.00000  -0.00000   0.00000  -0.07088
   2     2     6          0.15276   0.00000  -0.00000  -0.00000   0.23488
   3     2     6         -0.00000   0.06984  -0.01714  -0.07792   0.00000
   1     3     6          0.27714   0.00000  -0.00000   0.00000  -0.16685
   2     3     6         -0.25039  -0.00000   0.00000  -0.00000   0.22043
   3     3     6          0.00000  -0.16060  -0.00179  -0.06708  -0.00000
   1     4     6         -0.00000  -0.00000   0.00000  -0.00000   0.09806
   2     4     6         -0.11377  -0.00000   0.00000  -0.00000   0.00000
   3     4     6         -0.00000   0.11888  -0.14361   0.00000  -0.00000
   1     5     6         -0.27714  -0.00000   0.00000   0.00000  -0.16685
   2     5     6         -0.25039   0.00000  -0.00000   0.00000  -0.22043
   3     5     6          0.00000  -0.16060  -0.00179   0.06708   0.00000
   1     6     6         -0.25066  -0.00000   0.00000   0.00000  -0.07088
   2     6     6          0.15276   0.00000   0.00000   0.00000  -0.23488
   3     6     6         -0.00000   0.06984  -0.01714   0.07792   0.00000
   1     7     8          0.00000   0.00000  -0.00000  -0.00000   0.24725
   2     7     8          0.11008  -0.00000   0.00000  -0.00000  -0.00000
   3     7     8         -0.00000   0.01503  -0.03754  -0.00000   0.00000
   1     8     1          0.11688  -0.00000   0.00000   0.00000  -0.12649
   2     8     1          0.22701   0.00000  -0.00000  -0.00000   0.28159
   3     8     1         -0.00000   0.49977  -0.17443   0.58838  -0.00000
   1     9     1          0.17659   0.00000  -0.00000   0.00000  -0.46429
   2     9     1         -0.30548  -0.00000   0.00000  -0.00000   0.05910
   3     9     1         -0.00000   0.08116   0.20447   0.37847  -0.00000
   1    10     1         -0.00000  -0.00000   0.00000   0.00000   0.08830
   2    10     1          0.35056  -0.00000   0.00000  -0.00000   0.00000
   3    10     1         -0.00000   0.63238   0.90008  -0.00000   0.00000
   1    11     1         -0.17659  -0.00000   0.00000   0.00000  -0.46429
   2    11     1         -0.30548   0.00000  -0.00000   0.00000  -0.05910
   3    11     1          0.00000   0.08116   0.20447  -0.37847  -0.00000
   1    12     1         -0.11688   0.00000  -0.00000   0.00000  -0.12649
   2    12     1          0.22701   0.00000  -0.00000   0.00000  -0.28159
   3    12     1         -0.00000   0.49977  -0.17443  -0.58838  -0.00000
                          11        12        13        14        15
                           A         A         A         A         A
       Frequencies ---   858.1457  958.1822  958.7185  990.1991 1044.3842
    Reduced masses ---     2.2422    1.2002    1.3172    5.1291    2.1985
   Force constants ---     0.9729    0.6492    0.7133    2.9630    1.4129
    IR Intensities ---    38.4680    0.3364    0.0000   49.1272   15.4382
 Coord Atom Element:
   1     1     6          0.00000  -0.00000   0.00000   0.01664   0.00788
   2     1     6         -0.00000   0.00000  -0.00000  -0.00000  -0.00000
   3     1     6          0.24483   0.00857  -0.00000   0.00000   0.00000
   1     2     6         -0.00000   0.00000  -0.00000   0.11921  -0.07817
   2     2     6          0.00000   0.00000   0.00000   0.30767  -0.00378
   3     2     6         -0.14231   0.04083   0.06868  -0.00000  -0.00000
   1     3     6         -0.00000   0.00000   0.00000   0.07770   0.01208
   2     3     6          0.00000  -0.00000  -0.00000  -0.16901  -0.15736
   3     3     6         -0.02370  -0.07797  -0.09673   0.00000   0.00000
   1     4     6          0.00000  -0.00000  -0.00000  -0.28775   0.21473
   2     4     6          0.00000  -0.00000   0.00000  -0.00000  -0.00000
   3     4     6          0.06915   0.04394  -0.00000  -0.00000  -0.00000
   1     5     6         -0.00000   0.00000  -0.00000   0.07770   0.01208
   2     5     6         -0.00000   0.00000  -0.00000   0.16901   0.15736
   3     5     6         -0.02370  -0.07797   0.09673   0.00000   0.00000
   1     6     6         -0.00000   0.00000  -0.00000   0.11921  -0.07817
   2     6     6         -0.00000  -0.00000  -0.00000  -0.30767   0.00378
   3     6     6         -0.14231   0.04083  -0.06868  -0.00000  -0.00000
   1     7     8          0.00000  -0.00000  -0.00000  -0.05995   0.00816
   2     7     8          0.00000  -0.00000   0.00000   0.00000   0.00000
   3     7     8         -0.06607   0.00210  -0.00000  -0.00000  -0.00000
   1     8     1          0.00000  -0.00000  -0.00000  -0.14958  -0.42355
   2     8     1         -0.00000   0.00000   0.00000   0.46668   0.18958
   3     8     1          0.56617  -0.31882  -0.39326   0.00000   0.00000
   1     9     1         -0.00000   0.00000   0.00000   0.03768  -0.29463
   2     9     1          0.00000  -0.00000  -0.00000  -0.17545  -0.34238
   3     9     1          0.24469   0.58524   0.57557  -0.00000  -0.00000
   1    10     1          0.00000  -0.00000  -0.00000  -0.28573   0.23013
   2    10     1          0.00000  -0.00000   0.00000  -0.00000   0.00000
   3    10     1         -0.35839  -0.30690   0.00000   0.00000   0.00000
   1    11     1          0.00000  -0.00000   0.00000   0.03768  -0.29463
   2    11     1         -0.00000   0.00000  -0.00000   0.17545   0.34238
   3    11     1          0.24469   0.58524  -0.57557  -0.00000  -0.00000
   1    12     1         -0.00000  -0.00000  -0.00000  -0.14958  -0.42355
   2    12     1         -0.00000  -0.00000  -0.00000  -0.46668  -0.18958
   3    12     1          0.56617  -0.31882   0.39326   0.00000   0.00000
                          16        17        18        19        20
                           A         A         A         A         A
       Frequencies ---  1088.8940 1168.8737 1185.4176 1275.0586 1361.6436
    Reduced masses ---     1.5516    1.0706    1.1312    2.7210    1.7951
   Force constants ---     1.0839    0.8618    0.9365    2.6064    1.9609
    IR Intensities ---     5.1912    7.7941   31.8604    8.6063   24.4718
 Coord Atom Element:
   1     1     6          0.00000  -0.00000  -0.01486  -0.00000  -0.00000
   2     1     6          0.07948  -0.01789   0.00000   0.32341   0.03482
   3     1     6          0.00000  -0.00000   0.00000   0.00000   0.00000
   1     2     6         -0.08222  -0.00834   0.04506   0.03962   0.12677
   2     2     6         -0.06570   0.00244   0.00058  -0.09579  -0.07736
   3     2     6         -0.00000   0.00000  -0.00000   0.00000   0.00000
   1     3     6          0.03185  -0.03054  -0.03778  -0.08816  -0.03180
   2     3     6         -0.05868  -0.01934  -0.04210  -0.05987  -0.00586
   3     3     6          0.00000  -0.00000   0.00000  -0.00000  -0.00000
   1     4     6         -0.00000  -0.00000  -0.01679   0.00000   0.00000
   2     4     6          0.10823   0.05128  -0.00000   0.07686   0.15479
   3     4     6         -0.00000   0.00000  -0.00000  -0.00000   0.00000
   1     5     6         -0.03185   0.03054  -0.03778   0.08816   0.03180
   2     5     6         -0.05868  -0.01934   0.04210  -0.05987  -0.00586
   3     5     6          0.00000  -0.00000   0.00000  -0.00000  -0.00000
   1     6     6          0.08222   0.00834   0.04506  -0.03962  -0.12677
   2     6     6         -0.06570   0.00244  -0.00058  -0.09579  -0.07736
   3     6     6         -0.00000   0.00000  -0.00000  -0.00000   0.00000
   1     7     8         -0.00000   0.00000   0.01374   0.00000  -0.00000
   2     7     8         -0.01636   0.00051  -0.00000  -0.02902   0.01347
   3     7     8         -0.00000   0.00000  -0.00000  -0.00000  -0.00000
   1     8     1         -0.47784   0.17202   0.43372   0.48233  -0.35462
   2     8     1          0.15576  -0.10248  -0.22278  -0.35651   0.19789
   3     8     1          0.00000  -0.00000   0.00000  -0.00000  -0.00000
   1     9     1          0.25619  -0.41734  -0.43274   0.21629  -0.37552
   2     9     1          0.06059  -0.23608  -0.26321   0.10523  -0.19919
   3     9     1         -0.00000   0.00000  -0.00000   0.00000   0.00000
   1    10     1         -0.00000  -0.00000  -0.01655   0.00000   0.00000
   2    10     1          0.55394   0.67401  -0.00000  -0.09619  -0.48706
   3    10     1          0.00000  -0.00000  -0.00000   0.00000   0.00000
   1    11     1         -0.25619   0.41734  -0.43274  -0.21629   0.37552
   2    11     1          0.06059  -0.23608   0.26321   0.10523  -0.19919
   3    11     1         -0.00000   0.00000  -0.00000   0.00000   0.00000
   1    12     1          0.47784  -0.17202   0.43372  -0.48233   0.35462
   2    12     1          0.15576  -0.10248   0.22278  -0.35651   0.19789
   3    12     1          0.00000  -0.00000   0.00000   0.00000  -0.00000
                          21        22        23        24        25
                           A         A         A         A         A
       Frequencies ---  1428.9741 1506.5494 1578.7743 1591.1175 1662.8888
    Reduced masses ---     2.4693    2.9470    4.5183    4.8903    6.0188
   Force constants ---     2.9708    3.9410    6.6353    7.2944    9.8058
    IR Intensities ---    82.4747   31.8736  323.9851   29.5999  459.8708
 Coord Atom Element:
   1     1     6         -0.15014  -0.00000   0.38553  -0.00000   0.28982
   2     1     6         -0.00000   0.11843  -0.00000  -0.20735  -0.00000
   3     1     6          0.00000  -0.00000  -0.00000  -0.00000   0.00000
   1     2     6         -0.13558  -0.16776  -0.00790  -0.09965  -0.28962
   2     2     6          0.09518  -0.03431   0.05826   0.15244   0.03526
   3     2     6         -0.00000   0.00000   0.00000   0.00000  -0.00000
   1     3     6          0.00619   0.22096  -0.17757  -0.05125   0.28227
   2     3     6         -0.10091   0.03769  -0.09940  -0.21368   0.08371
   3     3     6          0.00000  -0.00000  -0.00000  -0.00000   0.00000
   1     4     6          0.05456  -0.00000   0.13409  -0.00000  -0.13016
   2     4     6          0.00000   0.04561   0.00000   0.38343   0.00000
   3     4     6         -0.00000   0.00000   0.00000   0.00000  -0.00000
   1     5     6          0.00619  -0.22096  -0.17757   0.05125   0.28227
   2     5     6          0.10091   0.03769   0.09940  -0.21368  -0.08371
   3     5     6          0.00000  -0.00000  -0.00000  -0.00000   0.00000
   1     6     6         -0.13558   0.16776  -0.00790   0.09965  -0.28962
   2     6     6         -0.09518  -0.03431  -0.05826   0.15244  -0.03526
   3     6     6         -0.00000   0.00000   0.00000   0.00000  -0.00000
   1     7     8          0.15347   0.00000  -0.21497   0.00000  -0.09108
   2     7     8          0.00000  -0.02943   0.00000   0.01446   0.00000
   3     7     8         -0.00000   0.00000   0.00000   0.00000   0.00000
   1     8     1          0.40937   0.10053   0.34717   0.29474   0.22296
   2     8     1         -0.22648  -0.21100  -0.10943  -0.07529  -0.26597
   3     8     1         -0.00000   0.00000   0.00000   0.00000   0.00000
   1     9     1          0.44594  -0.34616   0.39547   0.24166  -0.29158
   2     9     1          0.13194  -0.30164   0.21818  -0.06893  -0.24054
   3     9     1          0.00000  -0.00000   0.00000  -0.00000  -0.00000
   1    10     1          0.07287  -0.00000   0.15636  -0.00000  -0.14313
   2    10     1         -0.00000  -0.54130  -0.00000  -0.57922  -0.00000
   3    10     1          0.00000  -0.00000   0.00000   0.00000  -0.00000
   1    11     1          0.44594   0.34616   0.39547  -0.24166  -0.29158
   2    11     1         -0.13194  -0.30164  -0.21818  -0.06893   0.24054
   3    11     1          0.00000  -0.00000   0.00000   0.00000  -0.00000
   1    12     1          0.40937  -0.10053   0.34717  -0.29474   0.22296
   2    12     1          0.22648  -0.21100   0.10943  -0.07529   0.26597
   3    12     1         -0.00000   0.00000  -0.00000  -0.00000   0.00000
                          26        27        28        29        30
                           A         A         A         A         A
       Frequencies ---  3136.2517 3140.1632 3182.4668 3183.0547 3194.7934
    Reduced masses ---     1.0833    1.0881    1.0896    1.0922    1.0952
   Force constants ---     6.2778    6.3213    6.5017    6.5198    6.5860
    IR Intensities ---    30.3124   61.3519   58.0628  106.1537   23.9882
 Coord Atom Element:
   1     1     6          0.00059  -0.00000  -0.00430  -0.00000   0.00276
   2     1     6         -0.00000   0.00060  -0.00000   0.00242   0.00000
   3     1     6          0.00000   0.00000  -0.00000  -0.00000   0.00000
   1     2     6          0.00624   0.00613  -0.02511  -0.03064   0.01627
   2     2     6          0.01270   0.01390  -0.04405  -0.05074   0.02539
   3     2     6         -0.00000  -0.00000   0.00000   0.00000  -0.00000
   1     3     6          0.02619   0.02888   0.00468   0.01036  -0.01201
   2     3     6         -0.04780  -0.05080  -0.00141  -0.01451   0.02330
   3     3     6          0.00000   0.00000  -0.00000  -0.00000   0.00000
   1     4     6         -0.02282  -0.00000  -0.04718  -0.00000  -0.06889
   2     4     6         -0.00000   0.00260  -0.00000   0.00237   0.00000
   3     4     6          0.00000  -0.00000   0.00000   0.00000  -0.00000
   1     5     6          0.02619  -0.02888   0.00468  -0.01036  -0.01201
   2     5     6          0.04780  -0.05080   0.00141  -0.01451  -0.02330
   3     5     6          0.00000   0.00000  -0.00000  -0.00000   0.00000
   1     6     6          0.00624  -0.00613  -0.02511   0.03064   0.01627
   2     6     6         -0.01270   0.01390   0.04405  -0.05074  -0.02539
   3     6     6         -0.00000  -0.00000   0.00000   0.00000  -0.00000
   1     7     8          0.00028   0.00000   0.00112   0.00000  -0.00081
   2     7     8          0.00000  -0.00024   0.00000  -0.00004  -0.00000
   3     7     8         -0.00000   0.00000  -0.00000  -0.00000   0.00000
   1     8     1         -0.09015  -0.09402   0.29177   0.34000  -0.17235
   2     8     1         -0.15989  -0.16655   0.51048   0.58728  -0.29642
   3     8     1         -0.00000  -0.00000   0.00000   0.00000   0.00000
   1     9     1         -0.31565  -0.33200  -0.02377  -0.09520   0.13209
   2     9     1          0.56422   0.59122   0.03282   0.16308  -0.23992
   3     9     1         -0.00000   0.00000  -0.00000   0.00000  -0.00000
   1    10     1          0.29965   0.00000   0.54576   0.00000   0.77904
   2    10     1          0.00000  -0.00475   0.00000  -0.00340   0.00000
   3    10     1         -0.00000  -0.00000  -0.00000   0.00000  -0.00000
   1    11     1         -0.31565   0.33200  -0.02377   0.09520   0.13209
   2    11     1         -0.56422   0.59122  -0.03282   0.16308   0.23992
   3    11     1         -0.00000  -0.00000  -0.00000  -0.00000  -0.00000
   1    12     1         -0.09015   0.09402   0.29177  -0.34000  -0.17235
   2    12     1          0.15989  -0.16655  -0.51048   0.58728   0.29642
   3    12     1          0.00000   0.00000   0.00000  -0.00000   0.00000
 Harmonic frequencies (cm**-1), IR intensities (KM/Mole), Raman scattering
 activities (A**4/AMU), depolarization ratios for plane and unpolarized
 incident light, reduced masses (AMU), force constants (mDyne/A),
 and normal coordinates:
                      1                      2                      3
                      A                      A                      A
 Frequencies --    193.4262               436.2771               451.8322
 Red. masses --      5.1286                 3.2230                 5.8988
 Frc consts  --      0.1131                 0.3614                 0.7095
 IR Inten    --      1.3728                 0.0000                 0.8495
  Atom  AN      X      Y      Z        X      Y      Z        X      Y      Z
     1   6     0.00   0.00  -0.08    -0.00  -0.00  -0.00     0.00  -0.22  -0.00
     2   6     0.00  -0.00  -0.29    -0.00  -0.00   0.23     0.04  -0.24  -0.00
     3   6    -0.00  -0.00   0.00     0.00   0.00  -0.22     0.10   0.04   0.00
     4   6    -0.00   0.00   0.27     0.00   0.00  -0.00    -0.00   0.10   0.00
     5   6    -0.00  -0.00   0.00     0.00   0.00   0.22    -0.10   0.04  -0.00
     6   6     0.00   0.00  -0.29     0.00  -0.00  -0.23    -0.04  -0.24   0.00
     7   8     0.00  -0.00   0.31    -0.00   0.00  -0.00     0.00   0.42   0.00
     8   1     0.00   0.00  -0.42     0.00  -0.00   0.39     0.26  -0.37  -0.00
     9   1    -0.00  -0.00   0.05     0.00   0.00  -0.50     0.26   0.13   0.00
    10   1    -0.00   0.00   0.56     0.00  -0.00   0.00    -0.00   0.17   0.00
    11   1     0.00  -0.00   0.05    -0.00   0.00   0.50    -0.26   0.13  -0.00
    12   1    -0.00   0.00  -0.42    -0.00  -0.00  -0.39    -0.26  -0.37   0.00
                      4                      5                      6
                      A                      A                      A
 Frequencies --    511.0825               537.5664               623.5978
 Red. masses --      2.2224                 8.0759                 6.5272
 Frc consts  --      0.3420                 1.3750                 1.4955
 IR Inten    --     28.7600                 9.2290                 0.7206
  Atom  AN      X      Y      Z        X      Y      Z        X      Y      Z
     1   6     0.00   0.00   0.20     0.32   0.00   0.00     0.00   0.15   0.00
     2   6    -0.00   0.00   0.05    -0.05  -0.21  -0.00     0.25   0.15  -0.00
     3   6    -0.00  -0.00  -0.11    -0.13  -0.18   0.00     0.28  -0.25   0.00
     4   6    -0.00  -0.00   0.19    -0.39  -0.00  -0.00    -0.00  -0.11  -0.00
     5   6     0.00   0.00  -0.11    -0.13   0.18   0.00    -0.28  -0.25   0.00
     6   6     0.00   0.00   0.05    -0.05   0.21  -0.00    -0.25   0.15  -0.00
     7   8     0.00  -0.00  -0.07     0.38  -0.00  -0.00     0.00   0.11  -0.00
     8   1    -0.00   0.00  -0.40    -0.34  -0.04   0.00     0.12   0.23  -0.00
     9   1    -0.00  -0.00  -0.53     0.10  -0.05   0.00     0.18  -0.31  -0.00
    10   1    -0.00  -0.00   0.01    -0.39  -0.00  -0.00    -0.00   0.35  -0.00
    11   1    -0.00   0.00  -0.53     0.10   0.05   0.00    -0.18  -0.31   0.00
    12   1     0.00   0.00  -0.40    -0.34   0.04  -0.00    -0.12   0.23  -0.00
                      7                      8                      9
                      A                      A                      A
 Frequencies --    693.5783               720.8369               810.7552
 Red. masses --      1.9693                 1.5124                 1.2402
 Frc consts  --      0.5581                 0.4630                 0.4803
 IR Inten    --     34.4531                50.1436                 0.0000
  Atom  AN      X      Y      Z        X      Y      Z        X      Y      Z
     1   6    -0.00   0.00  -0.11     0.00  -0.00   0.15    -0.00   0.00   0.00
     2   6     0.00   0.00   0.07    -0.00  -0.00  -0.02     0.00  -0.00  -0.08
     3   6     0.00  -0.00  -0.16    -0.00   0.00  -0.00     0.00  -0.00  -0.07
     4   6    -0.00  -0.00   0.12     0.00   0.00  -0.14    -0.00  -0.00   0.00
     5   6    -0.00   0.00  -0.16     0.00  -0.00  -0.00     0.00   0.00   0.07
     6   6    -0.00   0.00   0.07     0.00   0.00  -0.02     0.00   0.00   0.08
     7   8     0.00  -0.00   0.02    -0.00   0.00  -0.04    -0.00  -0.00  -0.00
     8   1    -0.00   0.00   0.50     0.00  -0.00  -0.17     0.00  -0.00   0.59
     9   1     0.00  -0.00   0.08    -0.00   0.00   0.20     0.00  -0.00   0.38
    10   1    -0.00  -0.00   0.63     0.00   0.00   0.90     0.00  -0.00  -0.00
    11   1    -0.00   0.00   0.08     0.00  -0.00   0.20     0.00   0.00  -0.38
    12   1     0.00   0.00   0.50    -0.00  -0.00  -0.17     0.00   0.00  -0.59
                     10                     11                     12
                      A                      A                      A
 Frequencies --    840.6000               858.1457               958.1822
 Red. masses --      5.2477                 2.2422                 1.2002
 Frc consts  --      2.1847                 0.9729                 0.6492
 IR Inten    --      0.5386                38.4680                 0.3364
  Atom  AN      X      Y      Z        X      Y      Z        X      Y      Z
     1   6     0.14  -0.00  -0.00     0.00  -0.00   0.24    -0.00   0.00   0.01
     2   6    -0.07   0.23   0.00    -0.00   0.00  -0.14     0.00   0.00   0.04
     3   6    -0.17   0.22  -0.00    -0.00   0.00  -0.02     0.00  -0.00  -0.08
     4   6     0.10   0.00  -0.00     0.00   0.00   0.07    -0.00  -0.00   0.04
     5   6    -0.17  -0.22   0.00    -0.00  -0.00  -0.02     0.00   0.00  -0.08
     6   6    -0.07  -0.23   0.00    -0.00  -0.00  -0.14     0.00  -0.00   0.04
     7   8     0.25  -0.00   0.00     0.00   0.00  -0.07    -0.00  -0.00   0.00
     8   1    -0.13   0.28  -0.00     0.00  -0.00   0.57    -0.00   0.00  -0.32
     9   1    -0.46   0.06  -0.00    -0.00   0.00   0.24     0.00  -0.00   0.59
    10   1     0.09   0.00   0.00     0.00   0.00  -0.36    -0.00  -0.00  -0.31
    11   1    -0.46  -0.06  -0.00     0.00  -0.00   0.24    -0.00   0.00   0.59
    12   1    -0.13  -0.28  -0.00    -0.00  -0.00   0.57    -0.00  -0.00  -0.32
                     13                     14                     15
                      A                      A                      A
 Frequencies --    958.7185               990.1991              1044.3842
 Red. masses --      1.3172                 5.1291                 2.1985
 Frc consts  --      0.7133                 2.9630                 1.4129
 IR Inten    --      0.0000                49.1272                15.4382
  Atom  AN      X      Y      Z        X      Y      Z        X      Y      Z
     1   6     0.00  -0.00  -0.00     0.02  -0.00   0.00     0.01  -0.00   0.00
     2   6    -0.00   0.00   0.07     0.12   0.31  -0.00    -0.08  -0.00  -0.00
     3   6     0.00  -0.00  -0.10     0.08  -0.17   0.00     0.01  -0.16   0.00
     4   6    -0.00   0.00  -0.00    -0.29  -0.00  -0.00     0.21  -0.00  -0.00
     5   6    -0.00  -0.00   0.10     0.08   0.17   0.00     0.01   0.16   0.00
     6   6    -0.00  -0.00  -0.07     0.12  -0.31  -0.00    -0.08   0.00  -0.00
     7   8    -0.00   0.00  -0.00    -0.06   0.00  -0.00     0.01   0.00  -0.00
     8   1    -0.00   0.00  -0.39    -0.15   0.47   0.00    -0.42   0.19   0.00
     9   1     0.00  -0.00   0.58     0.04  -0.18  -0.00    -0.29  -0.34  -0.00
    10   1    -0.00   0.00   0.00    -0.29  -0.00   0.00     0.23   0.00   0.00
    11   1     0.00  -0.00  -0.58     0.04   0.18  -0.00    -0.29   0.34  -0.00
    12   1    -0.00  -0.00   0.39    -0.15  -0.47   0.00    -0.42  -0.19   0.00
                     16                     17                     18
                      A                      A                      A
 Frequencies --   1088.8940              1168.8737              1185.4176
 Red. masses --      1.5516                 1.0706                 1.1312
 Frc consts  --      1.0839                 0.8618                 0.9365
 IR Inten    --      5.1912                 7.7941                31.8604
  Atom  AN      X      Y      Z        X      Y      Z        X      Y      Z
     1   6     0.00   0.08   0.00    -0.00  -0.02  -0.00    -0.01   0.00   0.00
     2   6    -0.08  -0.07  -0.00    -0.01   0.00   0.00     0.05   0.00  -0.00
     3   6     0.03  -0.06   0.00    -0.03  -0.02  -0.00    -0.04  -0.04   0.00
     4   6    -0.00   0.11  -0.00    -0.00   0.05   0.00    -0.02  -0.00  -0.00
     5   6    -0.03  -0.06   0.00     0.03  -0.02  -0.00    -0.04   0.04   0.00
     6   6     0.08  -0.07  -0.00     0.01   0.00   0.00     0.05  -0.00  -0.00
     7   8    -0.00  -0.02  -0.00     0.00   0.00   0.00     0.01  -0.00  -0.00
     8   1    -0.48   0.16   0.00     0.17  -0.10  -0.00     0.43  -0.22   0.00
     9   1     0.26   0.06  -0.00    -0.42  -0.24   0.00    -0.43  -0.26  -0.00
    10   1    -0.00   0.55   0.00    -0.00   0.67  -0.00    -0.02  -0.00  -0.00
    11   1    -0.26   0.06  -0.00     0.42  -0.24   0.00    -0.43   0.26  -0.00
    12   1     0.48   0.16   0.00    -0.17  -0.10  -0.00     0.43   0.22   0.00
                     19                     20                     21
                      A                      A                      A
 Frequencies --   1275.0586              1361.6436              1428.9741
 Red. masses --      2.7210                 1.7951                 2.4693
 Frc consts  --      2.6064                 1.9609                 2.9708
 IR Inten    --      8.6063                24.4718                82.4747
  Atom  AN      X      Y      Z        X      Y      Z        X      Y      Z
     1   6    -0.00   0.32   0.00    -0.00   0.03   0.00    -0.15  -0.00   0.00
     2   6     0.04  -0.10   0.00     0.13  -0.08   0.00    -0.14   0.10  -0.00
     3   6    -0.09  -0.06  -0.00    -0.03  -0.01  -0.00     0.01  -0.10   0.00
     4   6     0.00   0.08  -0.00     0.00   0.15   0.00     0.05   0.00  -0.00
     5   6     0.09  -0.06  -0.00     0.03  -0.01  -0.00     0.01   0.10   0.00
     6   6    -0.04  -0.10  -0.00    -0.13  -0.08   0.00    -0.14  -0.10  -0.00
     7   8     0.00  -0.03  -0.00    -0.00   0.01  -0.00     0.15   0.00  -0.00
     8   1     0.48  -0.36  -0.00    -0.35   0.20  -0.00     0.41  -0.23  -0.00
     9   1     0.22   0.11   0.00    -0.38  -0.20   0.00     0.45   0.13   0.00
    10   1     0.00  -0.10   0.00     0.00  -0.49   0.00     0.07  -0.00   0.00
    11   1    -0.22   0.11   0.00     0.38  -0.20   0.00     0.45  -0.13   0.00
    12   1    -0.48  -0.36   0.00     0.35   0.20  -0.00     0.41   0.23  -0.00
                     22                     23                     24
                      A                      A                      A
 Frequencies --   1506.5494              1578.7743              1591.1175
 Red. masses --      2.9470                 4.5183                 4.8903
 Frc consts  --      3.9410                 6.6353                 7.2944
 IR Inten    --     31.8736               323.9851                29.5999
  Atom  AN      X      Y      Z        X      Y      Z        X      Y      Z
     1   6    -0.00   0.12  -0.00     0.39  -0.00  -0.00    -0.00  -0.21  -0.00
     2   6    -0.17  -0.03   0.00    -0.01   0.06   0.00    -0.10   0.15   0.00
     3   6     0.22   0.04  -0.00    -0.18  -0.10  -0.00    -0.05  -0.21  -0.00
     4   6    -0.00   0.05   0.00     0.13   0.00   0.00    -0.00   0.38   0.00
     5   6    -0.22   0.04  -0.00    -0.18   0.10  -0.00     0.05  -0.21  -0.00
     6   6     0.17  -0.03   0.00    -0.01  -0.06   0.00     0.10   0.15   0.00
     7   8     0.00  -0.03   0.00    -0.21   0.00   0.00     0.00   0.01   0.00
     8   1     0.10  -0.21   0.00     0.35  -0.11   0.00     0.29  -0.08   0.00
     9   1    -0.35  -0.30  -0.00     0.40   0.22   0.00     0.24  -0.07  -0.00
    10   1    -0.00  -0.54  -0.00     0.16  -0.00   0.00    -0.00  -0.58   0.00
    11   1     0.35  -0.30  -0.00     0.40  -0.22   0.00    -0.24  -0.07   0.00
    12   1    -0.10  -0.21   0.00     0.35   0.11  -0.00    -0.29  -0.08  -0.00
                     25                     26                     27
                      A                      A                      A
 Frequencies --   1662.8888              3136.2517              3140.1632
 Red. masses --      6.0188                 1.0833                 1.0881
 Frc consts  --      9.8058                 6.2778                 6.3213
 IR Inten    --    459.8708                30.3124                61.3519
  Atom  AN      X      Y      Z        X      Y      Z        X      Y      Z
     1   6     0.29  -0.00   0.00     0.00  -0.00   0.00    -0.00   0.00   0.00
     2   6    -0.29   0.04  -0.00     0.01   0.01  -0.00     0.01   0.01  -0.00
     3   6     0.28   0.08   0.00     0.03  -0.05   0.00     0.03  -0.05   0.00
     4   6    -0.13   0.00  -0.00    -0.02  -0.00   0.00    -0.00   0.00  -0.00
     5   6     0.28  -0.08   0.00     0.03   0.05   0.00    -0.03  -0.05   0.00
     6   6    -0.29  -0.04  -0.00     0.01  -0.01  -0.00    -0.01   0.01  -0.00
     7   8    -0.09   0.00   0.00     0.00   0.00  -0.00     0.00  -0.00   0.00
     8   1     0.22  -0.27   0.00    -0.09  -0.16  -0.00    -0.09  -0.17  -0.00
     9   1    -0.29  -0.24  -0.00    -0.32   0.56  -0.00    -0.33   0.59   0.00
    10   1    -0.14  -0.00  -0.00     0.30   0.00  -0.00     0.00  -0.00  -0.00
    11   1    -0.29   0.24  -0.00    -0.32  -0.56  -0.00     0.33   0.59  -0.00
    12   1     0.22   0.27   0.00    -0.09   0.16   0.00     0.09  -0.17   0.00
                     28                     29                     30
                      A                      A                      A
 Frequencies --   3182.4668              3183.0547              3194.7934
 Red. masses --      1.0896                 1.0922                 1.0952
 Frc consts  --      6.5017                 6.5198                 6.5860
 IR Inten    --     58.0628               106.1537                23.9882
  Atom  AN      X      Y      Z        X      Y      Z        X      Y      Z
     1   6    -0.00  -0.00  -0.00    -0.00   0.00  -0.00     0.00   0.00   0.00
     2   6    -0.03  -0.04   0.00    -0.03  -0.05   0.00     0.02   0.03  -0.00
     3   6     0.00  -0.00  -0.00     0.01  -0.01  -0.00    -0.01   0.02   0.00
     4   6    -0.05  -0.00   0.00    -0.00   0.00   0.00    -0.07   0.00  -0.00
     5   6     0.00   0.00  -0.00    -0.01  -0.01  -0.00    -0.01  -0.02   0.00
     6   6    -0.03   0.04   0.00     0.03  -0.05   0.00     0.02  -0.03  -0.00
     7   8     0.00   0.00  -0.00     0.00  -0.00  -0.00    -0.00  -0.00   0.00
     8   1     0.29   0.51   0.00     0.34   0.59   0.00    -0.17  -0.30   0.00
     9   1    -0.02   0.03  -0.00    -0.10   0.16   0.00     0.13  -0.24  -0.00
    10   1     0.55   0.00  -0.00     0.00  -0.00   0.00     0.78   0.00  -0.00
    11   1    -0.02  -0.03  -0.00     0.10   0.16  -0.00     0.13   0.24  -0.00
    12   1     0.29  -0.51   0.00    -0.34   0.59  -0.00    -0.17   0.30   0.00

 -------------------
 - Thermochemistry -
 -------------------
 Temperature   298.150 Kelvin.  Pressure   1.00000 Atm.
 Atom     1 has atomic number  6 and mass  12.00000
 Atom     2 has atomic number  6 and mass  12.00000
 Atom     3 has atomic number  6 and mass  12.00000
 Atom     4 has atomic number  6 and mass  12.00000
 Atom     5 has atomic number  6 and mass  12.00000
 Atom     6 has atomic number  6 and mass  12.00000
 Atom     7 has atomic number  8 and mass  15.99491
 Atom     8 has atomic number  1 and mass   1.00783
 Atom     9 has atomic number  1 and mass   1.00783
 Atom    10 has atomic number  1 and mass   1.00783
 Atom    11 has atomic number  1 and mass   1.00783
 Atom    12 has atomic number  1 and mass   1.00783
 Molecular mass:    93.03404 amu.
 Principal axes and moments of inertia in atomic units:
                           1         2         3
     Eigenvalues --   314.72892 670.21063 984.93955
           X            1.00000  -0.00000   0.00000
           Y            0.00000   1.00000   0.00000
           Z            0.00000   0.00000   1.00000
 This molecule is an asymmetric top.
 Rotational symmetry number  2.
 Rotational temperatures (Kelvin)      0.27520     0.12923     0.08794
 Rotational constants (GHZ):           5.73427     2.69280     1.83234
 Zero-point vibrational energy     241131.9 (Joules/Mol)
                                   57.63190 (Kcal/Mol)
 Warning -- explicit consideration of   5 degrees of freedom as
           vibrations may cause significant error
 Vibrational temperatures:    278.30   627.71   650.09   735.33   773.44
          (Kelvin)            897.22   997.90  1037.12  1166.50  1209.44
                             1234.68  1378.61  1379.38  1424.68  1502.64
                             1566.68  1681.75  1705.55  1834.52  1959.10
                             2055.98  2167.59  2271.50  2289.26  2392.53
                             4512.37  4517.99  4578.86  4579.71  4596.60
 
 Zero-point correction=                           0.091842 (Hartree/Particle)
 Thermal correction to Energy=                    0.097031
 Thermal correction to Enthalpy=                  0.097976
 Thermal correction to Gibbs Free Energy=         0.063679
 Sum of electronic and zero-point Energies=           -306.664853
 Sum of electronic and thermal Energies=              -306.659664
 Sum of electronic and thermal Enthalpies=            -306.658720
 Sum of electronic and thermal Free Energies=         -306.693016
 
                     E (Thermal)             CV                S
                      KCal/Mol        Cal/Mol-Kelvin    Cal/Mol-Kelvin
 Total                   60.888             20.247             72.184
 Electronic               0.000              0.000              0.000
 Translational            0.889              2.981             39.503
 Rotational               0.889              2.981             25.455
 Vibrational             59.111             14.285              7.226
 Vibration     1          0.635              1.849              2.195
 Vibration     2          0.797              1.391              0.838
 Vibration     3          0.810              1.357              0.790
 Vibration     4          0.866              1.225              0.631
 Vibration     5          0.893              1.167              0.571
                       Q            Log10(Q)             Ln(Q)
 Total Bot       0.512629D-29        -29.290197        -67.443171
 Total V=0       0.900087D+13         12.954285         29.828343
 Vib (Bot)       0.178153D-41        -41.749208        -96.131104
 Vib (Bot)    1  0.103341D+01          0.014273          0.032865
 Vib (Bot)    2  0.397412D+00         -0.400759         -0.922781
 Vib (Bot)    3  0.378972D+00         -0.421393         -0.970293
 Vib (Bot)    4  0.318401D+00         -0.497025         -1.144443
 Vib (Bot)    5  0.295404D+00         -0.529584         -1.219413
 Vib (V=0)       0.312805D+01          0.495274          1.140410
 Vib (V=0)    1  0.164801D+01          0.216961          0.499571
 Vib (V=0)    2  0.113870D+01          0.056409          0.129887
 Vib (V=0)    3  0.112739D+01          0.052075          0.119906
 Vib (V=0)    4  0.109277D+01          0.038530          0.088718
 Vib (V=0)    5  0.108074D+01          0.033723          0.077649
 Electronic      0.100000D+01          0.000000          0.000000
 Translational   0.352709D+08          7.547417         17.378569
 Rotational      0.815820D+05          4.911594         11.309364
 -------------------------------------------------------------------
 Center     Atomic                   Forces (Hartrees/Bohr)
 Number     Number              X              Y              Z
 -------------------------------------------------------------------
      1        6          -0.000003195    0.000000000   -0.000000000
      2        6           0.000002928    0.000001357    0.000000000
      3        6          -0.000005808    0.000003378    0.000000000
      4        6           0.000000405    0.000000000    0.000000000
      5        6          -0.000005808   -0.000003378   -0.000000000
      6        6           0.000002928   -0.000001357    0.000000000
      7        8           0.000004305   -0.000000000    0.000000000
      8        1          -0.000000621   -0.000000757   -0.000000000
      9        1           0.000001496   -0.000001163   -0.000000000
     10        1           0.000002493   -0.000000000    0.000000000
     11        1           0.000001496    0.000001163   -0.000000000
     12        1          -0.000000621    0.000000757   -0.000000000
 -------------------------------------------------------------------
 Cartesian Forces:  Max     0.000005808 RMS     0.000002077

 GradGradGradGradGradGradGradGradGradGradGradGradGradGradGradGradGradGrad
 Berny optimization.
 Search for a local minimum.
 Step number   1 out of a maximum of    2
 All quantities printed in internal units (Hartrees-Bohrs-Radians)
 Second derivative matrix not updated -- analytic derivatives used.
 ITU=  0
     Eigenvalues ---    0.00760   0.01680   0.02414   0.02755   0.04597
     Eigenvalues ---    0.04934   0.05196   0.05997   0.06502   0.06812
     Eigenvalues ---    0.07176   0.10136   0.10461   0.17636   0.18138
     Eigenvalues ---    0.19649   0.21031   0.24300   0.28377   0.41460
     Eigenvalues ---    0.45446   0.64159   0.73074   0.80828   0.93277
     Eigenvalues ---    1.05878   1.12394   1.20479   1.22259   1.28654
 Angle between quadratic step and forces=  45.11 degrees.
 Linear search not attempted -- first point.
 B after Tr=    -0.000001    0.000000    0.000000
         Rot=    1.000000    0.000000    0.000000   -0.000000 Ang=   0.00 deg.
 Variable       Old X    -DE/DX   Delta X   Delta X   Delta X     New X
                                 (Linear)    (Quad)   (Total)
    X1        2.02707  -0.00000   0.00000  -0.00000  -0.00000   2.02707
    Y1        0.00000   0.00000   0.00000   0.00000   0.00000   0.00000
    Z1        0.00000  -0.00000   0.00000   0.00000   0.00000   0.00000
    X2        0.54413   0.00000   0.00000   0.00000  -0.00000   0.54413
    Y2        2.28483   0.00000   0.00000   0.00000   0.00000   2.28483
    Z2        0.00000   0.00000   0.00000  -0.00000  -0.00000  -0.00000
    X3       -2.07481  -0.00001   0.00000  -0.00001  -0.00001  -2.07481
    Y3        2.26319   0.00000   0.00000   0.00001   0.00001   2.26320
    Z3        0.00000   0.00000   0.00000  -0.00000  -0.00000  -0.00000
    X4       -3.44937   0.00000   0.00000   0.00000   0.00000  -3.44937
    Y4        0.00000   0.00000   0.00000   0.00000   0.00000   0.00000
    Z4        0.00000   0.00000   0.00000   0.00000   0.00000   0.00000
    X5       -2.07481  -0.00001   0.00000  -0.00001  -0.00001  -2.07481
    Y5       -2.26319  -0.00000   0.00000  -0.00001  -0.00001  -2.26320
    Z5        0.00000  -0.00000   0.00000  -0.00000  -0.00000  -0.00000
    X6        0.54413   0.00000   0.00000   0.00000  -0.00000   0.54413
    Y6       -2.28483  -0.00000   0.00000  -0.00000  -0.00000  -2.28483
    Z6        0.00000   0.00000   0.00000  -0.00000  -0.00000  -0.00000
    X7        4.42855   0.00000   0.00000   0.00001   0.00000   4.42856
    Y7        0.00000  -0.00000   0.00000   0.00000   0.00000   0.00000
    Z7        0.00000   0.00000   0.00000   0.00000   0.00000   0.00000
    X8        1.57726  -0.00000   0.00000  -0.00000  -0.00000   1.57726
    Y8        4.06399  -0.00000   0.00000   0.00000   0.00000   4.06399
    Z8        0.00000  -0.00000   0.00000  -0.00000  -0.00000  -0.00000
    X9       -3.08819   0.00000   0.00000   0.00000   0.00000  -3.08819
    Y9        4.05960  -0.00000   0.00000   0.00001   0.00001   4.05961
    Z9        0.00000  -0.00000   0.00000  -0.00000  -0.00000  -0.00000
   X10       -5.50451   0.00000   0.00000   0.00001   0.00001  -5.50450
   Y10        0.00000  -0.00000   0.00000   0.00000   0.00000   0.00000
   Z10        0.00000   0.00000   0.00000   0.00000   0.00000   0.00000
   X11       -3.08819   0.00000   0.00000   0.00000   0.00000  -3.08819
   Y11       -4.05960   0.00000   0.00000  -0.00001  -0.00001  -4.05961
   Z11        0.00000  -0.00000   0.00000  -0.00000  -0.00000  -0.00000
   X12        1.57726  -0.00000   0.00000  -0.00000  -0.00000   1.57726
   Y12       -4.06399   0.00000   0.00000  -0.00000  -0.00000  -4.06399
   Z12        0.00000  -0.00000   0.00000  -0.00000  -0.00000  -0.00000
         Item               Value     Threshold  Converged?
 Maximum Force            0.000006     0.000450     YES
 RMS     Force            0.000002     0.000300     YES
 Maximum Displacement     0.000009     0.001800     YES
 RMS     Displacement     0.000004     0.001200     YES
 Predicted change in Energy=-9.479183D-11
 Optimization completed.
    -- Stationary point found.
 GradGradGradGradGradGradGradGradGradGradGradGradGradGradGradGradGradGrad


 ----------------------------------------------------------------------

 Electric dipole moment (input orientation):
 (Debye = 10**-18 statcoulomb cm , SI units = C m)
                  (au)            (Debye)         (10**-30 SI)
   Tot        0.192646D+01      0.489657D+01      0.163332D+02
   x         -0.192646D+01     -0.489657D+01     -0.163332D+02
   y          0.000000D+00      0.000000D+00      0.000000D+00
   z          0.000000D+00      0.000000D+00      0.000000D+00

 Dipole polarizability, Alpha (input orientation).
 (esu units = cm**3 , SI units = C**2 m**2 J**-1)
 Alpha(0;0):
               (au)            (10**-24 esu)      (10**-40 SI)
   iso        0.866113D+02      0.128345D+02      0.142803D+02
   aniso      0.521859D+02      0.773316D+01      0.860430D+01
   xx         0.113867D+03      0.168733D+02      0.187741D+02
   yx         0.000000D+00      0.000000D+00      0.000000D+00
   yy         0.917090D+02      0.135899D+02      0.151208D+02
   zx         0.000000D+00      0.000000D+00      0.000000D+00
   zy         0.000000D+00      0.000000D+00      0.000000D+00
   zz         0.542581D+02      0.804023D+01      0.894596D+01

 ----------------------------------------------------------------------

 Dipole orientation:
     6          0.00000000          0.00000000         -2.02707142
     6          0.00000000          2.28483006         -0.54412774
     6          0.00000000          2.26319270          2.07480590
     6         -0.00000000         -0.00000000          3.44937379
     6         -0.00000000         -2.26319270          2.07480590
     6         -0.00000000         -2.28483006         -0.54412774
     8          0.00000000          0.00000000         -4.42855428
     1          0.00000000          4.06398831         -1.57725991
     1          0.00000000          4.05960415          3.08819043
     1         -0.00000000         -0.00000000          5.50450764
     1         -0.00000000         -4.05960415          3.08819043
     1         -0.00000000         -4.06398831         -1.57725991

 Electric dipole moment (dipole orientation):
 (Debye = 10**-18 statcoulomb cm , SI units = C m)
                  (au)            (Debye)         (10**-30 SI)
   Tot        0.192646D+01      0.489657D+01      0.163332D+02
   x          0.000000D+00      0.000000D+00      0.000000D+00
   y          0.000000D+00      0.000000D+00      0.000000D+00
   z          0.192646D+01      0.489657D+01      0.163332D+02

 Dipole polarizability, Alpha (dipole orientation).
 (esu units = cm**3 , SI units = C**2 m**2 J**-1)
 Alpha(0;0):
               (au)            (10**-24 esu)      (10**-40 SI)
   iso        0.866113D+02      0.128345D+02      0.142803D+02
   aniso      0.521859D+02      0.773316D+01      0.860430D+01
   xx         0.542581D+02      0.804023D+01      0.894596D+01
   yx         0.000000D+00      0.000000D+00      0.000000D+00
   yy         0.917090D+02      0.135899D+02      0.151208D+02
   zx         0.000000D+00      0.000000D+00      0.000000D+00
   zy         0.000000D+00      0.000000D+00      0.000000D+00
   zz         0.113867D+03      0.168733D+02      0.187741D+02

 ----------------------------------------------------------------------
 Unable to Open any file for archive entry.
 1\1\GINC-NODE067\Freq\RCAM-B3LYP\6-31+G(d)\C6H5O1(1-)\CMYERS7\26-Jul-2
 023\0\\# CAM-B3LYP/6-31+G* Symmetry=(Loose) nosymm freq=(saveNM,HPmode
 s) Integral=Fine\\phenoxy radical optimization\\-1,1\C,1.07268,0.,0.\C
 ,0.28794,1.20908,0.\C,-1.09794,1.19763,0.\C,-1.82533,0.,0.\C,-1.09794,
 -1.19763,0.\C,0.28794,-1.20908,0.\O,2.34349,0.,0.\H,0.83465,2.15057,0.
 \H,-1.6342,2.14825,0.\H,-2.91286,0.,0.\H,-1.6342,-2.14825,0.\H,0.83465
 ,-2.15057,0.\\Version=ES64L-GDVRevI.10+\HF=-306.7566953\RMSD=5.516e-09
 \RMSF=2.077e-06\ZeroPoint=0.0918423\Thermal=0.0970314\Dipole=-1.926455
 3,0.,0.\DipoleDeriv=2.3350314,0.,0.,0.,0.0177551,0.,0.,0.,0.0957204,-0
 .6121452,-0.1986774,0.,0.6270458,0.0069015,0.,0.,0.,-0.3095807,0.52044
 66,0.4356366,0.,0.1378741,0.3610528,0.,0.,0.,-0.1895269,-0.4210054,0.,
 0.,0.,-0.6490561,0.,0.,0.,-0.3479063,0.5204466,-0.4356366,0.,-0.137874
 1,0.3610528,0.,0.,0.,-0.1895269,-0.6121452,0.1986774,0.,-0.6270458,0.0
 069015,0.,0.,0.,-0.3095807,-2.3615112,0.,0.,0.,-0.4459525,0.,0.,0.,-0.
 5257284,-0.0274026,-0.121093,0.,-0.0986396,-0.154544,0.,0.,0.,0.155213
 ,-0.032054,0.1449453,0.,0.1498282,-0.1896068,0.,0.,0.,0.1304935,-0.250
 2044,0.,0.,0.,0.0296466,0.,0.,0.,0.2047166,-0.032054,-0.1449453,0.,-0.
 1498282,-0.1896068,0.,0.,0.,0.1304935,-0.0274026,0.121093,0.,0.0986396
 ,-0.154544,0.,0.,0.,0.155213\Polar=113.8668669,0.,91.7090397,0.,0.,54.
 2581287\Quadrupole=-9.2369134,5.7290766,3.5078368,0.,0.,0.\PG=C02V [C2
 (H1C1C1O1),SGV(C4H4)]\NImag=0\\0.79612031,0.,0.57273239,0.,0.,0.191535
 55,-0.13441370,0.02180223,0.,0.73006721,0.05834847,-0.23264447,0.,0.05
 440311,0.65144303,0.,0.,-0.06899972,0.,0.,0.10768932,-0.02688323,0.066
 02131,0.,-0.37470751,-0.03121305,0.,0.70443423,0.02545859,0.04571487,0
 .,0.02936491,-0.12979574,0.,-0.01900613,0.70678003,0.,0.,-0.00472369,0
 .,0.,-0.05168093,0.,0.,0.13236898,0.01127529,0.,0.,-0.03333865,-0.0241
 3117,0.,-0.17497690,-0.12295222,0.,0.73849943,0.,-0.06998854,0.,-0.070
 95968,0.02384094,0.,-0.06286014,-0.27564544,0.,0.,0.65120507,0.,0.,-0.
 00290788,0.,0.,0.00787660,0.,0.,-0.05527960,0.,0.,0.09893750,-0.026883
 23,-0.06602132,0.,-0.03810574,0.00772866,0.,0.04931780,0.02378825,0.,-
 0.17497690,0.06286015,0.,0.70443423,-0.02545859,0.04571487,0.,0.030424
 28,-0.01473082,0.,-0.02378825,-0.06205467,0.,0.12295222,-0.27564544,0.
 ,0.01900613,0.70678003,0.,0.,-0.00472369,0.,0.,0.00091119,0.,0.,0.0046
 8303,0.,0.,-0.05527960,0.,0.,0.13236898,-0.13441370,-0.02180223,0.,0.0
 4928732,-0.00432403,0.,-0.03810574,-0.03042428,0.,-0.03333865,0.070959
 68,0.,-0.37470751,-0.02936491,0.,0.73006721,-0.05834847,-0.23264447,0.
 ,0.00432403,-0.03057067,0.,-0.00772866,-0.01473082,0.,0.02413117,0.023
 84094,0.,0.03121305,-0.12979574,0.,-0.05440311,0.65144303,0.,0.,-0.068
 99972,0.,0.,0.00221933,0.,0.,0.00091119,0.,0.,0.00787660,0.,0.,-0.0516
 8093,0.,0.,0.10768932,-0.49662030,0.,0.,-0.06199527,0.03247749,0.,0.01
 031427,0.00474308,0.,-0.01240950,0.,0.,0.01031427,-0.00474308,0.,-0.06
 199527,-0.03247749,0.,0.61200567,0.,-0.09195800,0.,0.05393261,0.005807
 08,0.,-0.01076257,-0.01260461,0.,0.,0.01443400,0.,0.01076257,-0.012604
 61,0.,-0.05393261,0.00580708,0.,0.,0.08223419,0.,0.,-0.06945120,0.,0.,
 0.01876689,0.,0.,0.00576403,0.,0.,-0.00119901,0.,0.,0.00576403,0.,0.,0
 .01876689,0.,0.,0.03198544,0.00900896,0.01425913,0.,-0.12449224,-0.118
 96412,0.,-0.01144422,-0.02955698,0.,-0.00488818,0.00209733,0.,-0.00059
 028,0.00076007,0.,-0.00115175,0.00254792,0.,0.00249159,-0.00158586,0.,
 0.13041131,-0.02207665,-0.02011781,0.,-0.11769221,-0.26694814,0.,0.002
 83935,0.00292071,0.,0.00023938,0.00242372,0.,0.00152538,-0.00013447,0.
 ,0.00444838,-0.00412094,0.,0.00184719,0.00449475,0.,0.13065144,0.28179
 064,0.,0.,0.00546605,0.,0.,-0.03020170,0.,0.,0.00044797,0.,0.,0.007150
 75,0.,0.,-0.00011202,0.,0.,0.00443047,0.,0.,-0.00373568,0.,0.,0.022113
 46,-0.00368263,-0.00391719,0.,-0.01130957,0.03146032,0.,-0.12363613,0.
 11251834,0.,0.01182936,-0.01403491,0.,-0.00092470,-0.00270645,0.,-0.00
 051261,-0.00026729,0.,-0.00196346,0.00178905,0.,0.00092013,-0.00088381
 ,0.,0.12774751,-0.00133128,0.00244323,0.,-0.00092033,0.00147782,0.,0.1
 1217818,-0.26153588,0.,0.01798993,-0.01907741,0.,-0.00496589,-0.003916
 61,0.,-0.00069197,0.00080869,0.,0.00120124,-0.00041605,0.,0.00054357,0
 .00134902,0.,-0.12413479,0.27942819,0.,0.,0.00892038,0.,0.,0.00421367,
 0.,0.,-0.03623108,0.,0.,0.00273854,0.,0.,0.00582136,0.,0.,-0.00048553,
 0.,0.,-0.00120196,0.,0.,-0.00483942,0.,0.,0.02507518,0.00116591,0.,0.,
 0.00067249,-0.00350506,0.,-0.01279760,0.00412006,0.,-0.33461649,0.,0.,
 -0.01279760,-0.00412006,0.,0.00067249,0.00350506,0.,-0.00067013,0.,0.,
 -0.00086030,0.00006116,0.,0.00100155,-0.00078243,0.,0.35808842,0.,-0.0
 0157749,0.,-0.00092253,-0.00456678,0.,-0.02912054,0.00500263,0.,0.,-0.
 05873415,0.,0.02912054,0.00500263,0.,0.00092253,-0.00456678,0.,0.,0.00
 072746,0.,-0.00140589,0.00001452,0.,0.00078431,0.00103577,0.,0.,0.0566
 1192,0.,0.,-0.00050250,0.,0.,0.00526041,0.,0.,-0.00196923,0.,0.,-0.019
 80317,0.,0.,-0.00196923,0.,0.,0.00526041,0.,0.,-0.00052177,0.,0.,0.001
 13507,0.,0.,-0.00348068,0.,0.,0.01893629,-0.00368263,0.00391719,0.,-0.
 00051261,0.00026729,0.,-0.00092470,0.00270645,0.,0.01182936,0.01403491
 ,0.,-0.12363613,-0.11251834,0.,-0.01130957,-0.03146032,0.,-0.00196346,
 -0.00178905,0.,0.00007255,-0.00015560,0.,0.00045801,0.00076317,0.,0.00
 100155,-0.00078431,0.,0.12774751,0.00133128,0.00244323,0.,0.00069197,0
 .00080869,0.,0.00496589,-0.00391661,0.,-0.01798993,-0.01907741,0.,-0.1
 1217818,-0.26153588,0.,0.00092033,0.00147782,0.,-0.00120124,-0.0004160
 6,0.,-0.00015061,-0.00004792,0.,-0.00076317,-0.00154884,0.,0.00078243,
 0.00103577,0.,0.12413479,0.27942819,0.,0.,0.00892038,0.,0.,-0.00048553
 ,0.,0.,0.00582136,0.,0.,0.00273854,0.,0.,-0.03623108,0.,0.,0.00421367,
 0.,0.,-0.00120196,0.,0.,-0.00088376,0.,0.,0.00035331,0.,0.,-0.00348068
 ,0.,0.,0.02507518,0.00900896,-0.01425913,0.,-0.00115175,-0.00254792,0.
 ,-0.00059028,-0.00076007,0.,-0.00488818,-0.00209733,0.,-0.01144422,0.0
 2955698,0.,-0.12449224,0.11896412,0.,0.00249159,0.00158586,0.,0.000522
 44,-0.00080401,0.,0.00007255,0.00015061,0.,-0.00086030,0.00140589,0.,0
 .00092013,-0.00054357,0.,0.13041131,0.02207665,-0.02011781,0.,-0.00444
 838,-0.00412094,0.,-0.00152538,-0.00013447,0.,-0.00023938,0.00242372,0
 .,-0.00283935,0.00292071,0.,0.11769221,-0.26694814,0.,-0.00184719,0.00
 449475,0.,0.00080401,-0.00162408,0.,0.00015560,-0.00004792,0.,-0.00006
 116,0.00001452,0.,0.00088381,0.00134902,0.,-0.13065144,0.28179064,0.,0
 .,0.00546605,0.,0.,0.00443047,0.,0.,-0.00011202,0.,0.,0.00715075,0.,0.
 ,0.00044797,0.,0.,-0.03020171,0.,0.,-0.00373568,0.,0.,-0.00097118,0.,0
 .,-0.00088376,0.,0.,0.00113507,0.,0.,-0.00483942,0.,0.,0.02211346\\0.0
 0000320,0.,0.,-0.00000293,-0.00000136,0.,0.00000581,-0.00000338,0.,-0.
 00000041,0.,0.,0.00000581,0.00000338,0.,-0.00000293,0.00000136,0.,-0.0
 0000431,0.,0.,0.00000062,0.00000076,0.,-0.00000150,0.00000116,0.,-0.00
 000249,0.,0.,-0.00000150,-0.00000116,0.,0.00000062,-0.00000076,0.\\\@
 The archive entry for this job was punched.


 AND HERE I AM, FOR ALL MY LORE,
 THE WRETCHED FOOL I WAS BEFORE.
 CALLED MASTER OF ARTS, AND DOCTOR TO BOOT,
 FOR TEN YEARS ALMOST I CONFUTE
 AND UP AND DOWN, WHEREVER IT GOES
 I DRAG MY STUDENTS BY THE NOSE --
 AND SEE THAT FOR ALL OUR SCIENCE AND ART
 WE CAN KNOW NOTHING.  IT BURNS MY HEART.

                                       -- FAUST
 Job cpu time:       0 days  0 hours  7 minutes 22.8 seconds.
 Elapsed time:       0 days  0 hours  0 minutes 15.2 seconds.
 File lengths (MBytes):  RWF=     96 Int=      0 D2E=      0 Chk=      3 Scr=      2
 Normal termination of Gaussian DV at Wed Jul 26 21:26:19 2023.
