 Set GAUSS_MDEF to "100GB".
 Set GAUSS_PDEF to "32".
 Entering Gaussian System, Link 0=gdv
 Initial command:
 /opt/unmanaged/gaussian/gdv-20170407-i10+/gdv/l1.exe "/scratch/cmyers7/6686/Gau-1542484.inp" -scrdir="/scratch/cmyers7/6686/"
 Default is to use a total of  32 processors:
                               32 via shared-memory
                                1 via Linda
 Entering Link 1 = /opt/unmanaged/gaussian/gdv-20170407-i10+/gdv/l1.exe PID=   1542485.
  
 Copyright (c) 1988-2017, Gaussian, Inc.  All Rights Reserved.
  
 This is the private, development version of
 the Gaussian(R) DV system of programs. It is based on
 the Gaussian(R) 16 system (copyright 2016, Gaussian, Inc.),
 the Gaussian(R) 09 system (copyright 2009, Gaussian, Inc.),
 the Gaussian(R) 03 system (copyright 2003, Gaussian, Inc.),
 the Gaussian(R) 98 system (copyright 1998, Gaussian, Inc.),
 the Gaussian(R) 94 system (copyright 1995, Gaussian, Inc.),
 the Gaussian 92(TM) system (copyright 1992, Gaussian, Inc.),
 the Gaussian 90(TM) system (copyright 1990, Gaussian, Inc.),
 the Gaussian 88(TM) system (copyright 1988, Gaussian, Inc.),
 the Gaussian 86(TM) system (copyright 1986, Carnegie Mellon
 University), and the Gaussian 82(TM) system (copyright 1983,
 Carnegie Mellon University). Gaussian is a federally registered
 trademark of Gaussian, Inc.
  
 This software contains proprietary and confidential information,
 including trade secrets, belonging to Gaussian, Inc.
  
 This software is provided under written license and may be
 used, copied, transmitted, or stored only in accord with that
 written license.
  
 The following legend is applicable only to US Government
 contracts under FAR:
  
                    RESTRICTED RIGHTS LEGEND
  
 Use, reproduction and disclosure by the US Government is
 subject to restrictions as set forth in subparagraphs (a)
 and (c) of the Commercial Computer Software - Restricted
 Rights clause in FAR 52.227-19.
  
 Gaussian, Inc.
 340 Quinnipiac St., Bldg. 40, Wallingford CT 06492
  
  
 ---------------------------------------------------------------
 Warning -- This program may not be used in any manner that
 competes with the business of Gaussian, Inc. or will provide
 assistance to any competitor of Gaussian, Inc.  The licensee
 of this program is prohibited from giving any competitor of
 Gaussian, Inc. access to this program.  By using this program,
 the user acknowledges that Gaussian, Inc. is engaged in the
 business of creating and licensing software in the field of
 computational chemistry and represents and warrants to the
 licensee that it is not a competitor of Gaussian, Inc. and that
 it will not use this program in any manner prohibited above.
 ---------------------------------------------------------------
  

 Cite this work as:
 Gaussian Development Version, Revision I.10+,
 M. J. Frisch, G. W. Trucks, H. B. Schlegel, G. E. Scuseria, 
 M. A. Robb, J. R. Cheeseman, G. Scalmani, V. Barone, 
 G. A. Petersson, H. Nakatsuji, X. Li, M. Caricato, A. V. Marenich, 
 J. Bloino, B. G. Janesko, R. Gomperts, B. Mennucci, H. P. Hratchian, 
 J. V. Ortiz, A. F. Izmaylov, J. L. Sonnenberg, D. Williams-Young, 
 F. Ding, F. Lipparini, F. Egidi, J. Goings, B. Peng, A. Petrone, 
 T. Henderson, D. Ranasinghe, V. G. Zakrzewski, J. Gao, N. Rega, 
 G. Zheng, W. Liang, M. Hada, M. Ehara, K. Toyota, R. Fukuda, 
 J. Hasegawa, M. Ishida, T. Nakajima, Y. Honda, O. Kitao, H. Nakai, 
 T. Vreven, K. Throssell, J. A. Montgomery, Jr., J. E. Peralta, 
 F. Ogliaro, M. J. Bearpark, J. J. Heyd, E. N. Brothers, K. N. Kudin, 
 V. N. Staroverov, T. A. Keith, R. Kobayashi, J. Normand, 
 K. Raghavachari, A. P. Rendell, J. C. Burant, S. S. Iyengar, 
 J. Tomasi, M. Cossi, J. M. Millam, M. Klene, C. Adamo, R. Cammi, 
 J. W. Ochterski, R. L. Martin, K. Morokuma, O. Farkas, 
 J. B. Foresman, and D. J. Fox, Gaussian, Inc., Wallingford CT, 2016.
 
 *******************************************
 Gaussian DV:  ES64L-GDVRevI.10+ 27-Mar-2017
                 28-Jul-2023 
 *******************************************
 %chk=phenolate_gs.chk
 ---------------------------------------------
 # Geom=Check freq=(readfc,FC,readFCHT) nosymm
 ---------------------------------------------
 1/29=2,38=1,172=1/1;
 2/12=2,15=1,40=1/2;
 7/8=1,25=11,30=1,71=10,121=1/16,18;
 99/5=5/99;
 --------------------
 vibronic calculation
 --------------------
 Structure from the checkpoint file:  "phenolate_gs.chk"
 Charge =  0 Multiplicity = 1
 No Z-Matrix found in chk file; cartesian coordinates used.
  C                                                 1.072680000000      0.000000000000      0.000000000000
  C                                                 0.287940000000      1.209080000000      0.000000000000
  C                                                -1.097940000000      1.197630000000      0.000000000000
  C                                                -1.825330000000      0.000000000000      0.000000000000
  C                                                -1.097940000000     -1.197630000000      0.000000000000
  C                                                 0.287940000000     -1.209080000000      0.000000000000
  O                                                 2.343490000000      0.000000000000      0.000000000000
  H                                                 0.834650000000      2.150570000000      0.000000000000
  H                                                -1.634200000000      2.148250000000      0.000000000000
  H                                                -2.912860000000      0.000000000000      0.000000000000
  H                                                -1.634200000000     -2.148250000000      0.000000000000
  H                                                 0.834650000000     -2.150570000000      0.000000000000
 Recover connectivity data from disk.
                          Input orientation:                          
 ---------------------------------------------------------------------
 Center     Atomic      Atomic             Coordinates (Angstroms)
 Number     Number       Type             X           Y           Z
 ---------------------------------------------------------------------
      1          6           0        1.072680    0.000000    0.000000
      2          6           0        0.287940    1.209080    0.000000
      3          6           0       -1.097940    1.197630    0.000000
      4          6           0       -1.825330    0.000000    0.000000
      5          6           0       -1.097940   -1.197630    0.000000
      6          6           0        0.287940   -1.209080    0.000000
      7          8           0        2.343490    0.000000    0.000000
      8          1           0        0.834650    2.150570    0.000000
      9          1           0       -1.634200    2.148250    0.000000
     10          1           0       -2.912860    0.000000    0.000000
     11          1           0       -1.634200   -2.148250    0.000000
     12          1           0        0.834650   -2.150570    0.000000
 ---------------------------------------------------------------------
                    Distance matrix (angstroms):
                    1          2          3          4          5
     1  C    0.000000
     2  C    1.441420   0.000000
     3  C    2.479094   1.385927   0.000000
     4  C    2.898010   2.434704   1.401219   0.000000
     5  C    2.479094   2.777214   2.395260   1.401219   0.000000
     6  C    1.441420   2.418160   2.777214   2.434704   1.385927
     7  O    1.270810   2.384777   3.643866   4.168820   3.643866
     8  H    2.163703   1.088713   2.154762   3.420591   3.865921
     9  H    3.455746   2.139314   1.091445   2.156736   3.388582
    10  H    3.985540   3.421549   2.174454   1.087530   2.174454
    11  H    3.455746   3.868629   3.388582   2.156736   1.091445
    12  H    2.163703   3.403842   3.865921   3.420591   2.154762
                    6          7          8          9         10
     6  C    0.000000
     7  O    2.384777   0.000000
     8  H    3.403842   2.627080   0.000000
     9  H    3.868629   4.520730   2.468851   0.000000
    10  H    3.421549   5.256350   4.320739   2.499990   0.000000
    11  H    2.139314   4.520730   4.957325   4.296500   2.499990
    12  H    1.088713   2.627080   4.301140   4.957325   4.320739
                   11         12
    11  H    0.000000
    12  H    2.468851   0.000000
 Symmetry turned off by external request.
 Stoichiometry    C6H5O
 Framework group  C2V[C2(HCCO),SGV(C4H4)]
 Deg. of freedom    11
 Full point group                 C2V     NOp   4
 Rotational constants (GHZ):           5.7342719           2.6927970           1.8323370
 Electric field and nuclear coordinate derivatives read from checkpoint file.
 Full mass-weighted force constant matrix:
 Low frequencies ---    0.0004    0.0005    0.0010    7.3291    8.2672    8.8311
 Low frequencies ---  193.4264  436.2772  451.8323
 Diagonal vibrational polarizability:
       12.5802966       2.0728068       9.8905285
 Harmonic frequencies (cm**-1), IR intensities (KM/Mole), Raman scattering
 activities (A**4/AMU), depolarization ratios for plane and unpolarized
 incident light, reduced masses (AMU), force constants (mDyne/A),
 and normal coordinates:
                      1                      2                      3
                      A                      A                      A
 Frequencies --    193.4262               436.2771               451.8322
 Red. masses --      5.1286                 3.2230                 5.8988
 Frc consts  --      0.1131                 0.3614                 0.7095
 IR Inten    --      1.3728                 0.0000                 0.8495
  Atom  AN      X      Y      Z        X      Y      Z        X      Y      Z
     1   6     0.00   0.00  -0.08    -0.00  -0.00  -0.00     0.00  -0.22  -0.00
     2   6     0.00  -0.00  -0.29    -0.00  -0.00   0.23     0.04  -0.24  -0.00
     3   6    -0.00  -0.00   0.00     0.00   0.00  -0.22     0.10   0.04   0.00
     4   6    -0.00   0.00   0.27     0.00   0.00  -0.00    -0.00   0.10   0.00
     5   6    -0.00  -0.00   0.00     0.00   0.00   0.22    -0.10   0.04  -0.00
     6   6     0.00   0.00  -0.29     0.00  -0.00  -0.23    -0.04  -0.24   0.00
     7   8     0.00  -0.00   0.31    -0.00   0.00  -0.00     0.00   0.42   0.00
     8   1     0.00   0.00  -0.42     0.00  -0.00   0.39     0.26  -0.37  -0.00
     9   1    -0.00  -0.00   0.05     0.00   0.00  -0.50     0.26   0.13   0.00
    10   1    -0.00   0.00   0.56     0.00  -0.00   0.00    -0.00   0.17   0.00
    11   1     0.00  -0.00   0.05    -0.00   0.00   0.50    -0.26   0.13  -0.00
    12   1    -0.00   0.00  -0.42    -0.00  -0.00  -0.39    -0.26  -0.37   0.00
                      4                      5                      6
                      A                      A                      A
 Frequencies --    511.0825               537.5664               623.5978
 Red. masses --      2.2224                 8.0759                 6.5272
 Frc consts  --      0.3420                 1.3750                 1.4955
 IR Inten    --     28.7600                 9.2290                 0.7206
  Atom  AN      X      Y      Z        X      Y      Z        X      Y      Z
     1   6     0.00   0.00   0.20     0.32   0.00   0.00     0.00   0.15   0.00
     2   6    -0.00   0.00   0.05    -0.05  -0.21  -0.00     0.25   0.15  -0.00
     3   6    -0.00  -0.00  -0.11    -0.13  -0.18   0.00     0.28  -0.25   0.00
     4   6    -0.00  -0.00   0.19    -0.39  -0.00  -0.00    -0.00  -0.11  -0.00
     5   6     0.00   0.00  -0.11    -0.13   0.18   0.00    -0.28  -0.25   0.00
     6   6     0.00   0.00   0.05    -0.05   0.21  -0.00    -0.25   0.15  -0.00
     7   8     0.00  -0.00  -0.07     0.38  -0.00  -0.00     0.00   0.11  -0.00
     8   1    -0.00   0.00  -0.40    -0.34  -0.04   0.00     0.12   0.23  -0.00
     9   1    -0.00  -0.00  -0.53     0.10  -0.05   0.00     0.18  -0.31  -0.00
    10   1    -0.00  -0.00   0.01    -0.39  -0.00  -0.00    -0.00   0.35  -0.00
    11   1    -0.00   0.00  -0.53     0.10   0.05   0.00    -0.18  -0.31   0.00
    12   1     0.00   0.00  -0.40    -0.34   0.04  -0.00    -0.12   0.23  -0.00
                      7                      8                      9
                      A                      A                      A
 Frequencies --    693.5783               720.8369               810.7552
 Red. masses --      1.9693                 1.5124                 1.2402
 Frc consts  --      0.5581                 0.4630                 0.4803
 IR Inten    --     34.4531                50.1436                 0.0000
  Atom  AN      X      Y      Z        X      Y      Z        X      Y      Z
     1   6    -0.00   0.00  -0.11     0.00  -0.00   0.15    -0.00   0.00   0.00
     2   6     0.00   0.00   0.07    -0.00  -0.00  -0.02     0.00  -0.00  -0.08
     3   6     0.00  -0.00  -0.16    -0.00   0.00  -0.00     0.00  -0.00  -0.07
     4   6    -0.00  -0.00   0.12     0.00   0.00  -0.14    -0.00  -0.00   0.00
     5   6    -0.00   0.00  -0.16     0.00  -0.00  -0.00     0.00   0.00   0.07
     6   6    -0.00   0.00   0.07     0.00   0.00  -0.02     0.00   0.00   0.08
     7   8     0.00  -0.00   0.02    -0.00   0.00  -0.04    -0.00  -0.00  -0.00
     8   1    -0.00   0.00   0.50     0.00  -0.00  -0.17     0.00  -0.00   0.59
     9   1     0.00  -0.00   0.08    -0.00   0.00   0.20     0.00  -0.00   0.38
    10   1    -0.00  -0.00   0.63     0.00   0.00   0.90     0.00  -0.00  -0.00
    11   1    -0.00   0.00   0.08     0.00  -0.00   0.20     0.00   0.00  -0.38
    12   1     0.00   0.00   0.50    -0.00  -0.00  -0.17     0.00   0.00  -0.59
                     10                     11                     12
                      A                      A                      A
 Frequencies --    840.6000               858.1457               958.1822
 Red. masses --      5.2477                 2.2422                 1.2002
 Frc consts  --      2.1847                 0.9729                 0.6492
 IR Inten    --      0.5386                38.4680                 0.3364
  Atom  AN      X      Y      Z        X      Y      Z        X      Y      Z
     1   6     0.14  -0.00  -0.00     0.00  -0.00   0.24    -0.00   0.00   0.01
     2   6    -0.07   0.23   0.00    -0.00   0.00  -0.14     0.00   0.00   0.04
     3   6    -0.17   0.22  -0.00    -0.00   0.00  -0.02     0.00  -0.00  -0.08
     4   6     0.10   0.00  -0.00     0.00   0.00   0.07    -0.00  -0.00   0.04
     5   6    -0.17  -0.22   0.00    -0.00  -0.00  -0.02     0.00   0.00  -0.08
     6   6    -0.07  -0.23   0.00    -0.00  -0.00  -0.14     0.00  -0.00   0.04
     7   8     0.25  -0.00   0.00     0.00   0.00  -0.07    -0.00  -0.00   0.00
     8   1    -0.13   0.28  -0.00     0.00  -0.00   0.57    -0.00   0.00  -0.32
     9   1    -0.46   0.06  -0.00    -0.00   0.00   0.24     0.00  -0.00   0.59
    10   1     0.09   0.00   0.00     0.00   0.00  -0.36    -0.00  -0.00  -0.31
    11   1    -0.46  -0.06  -0.00     0.00  -0.00   0.24    -0.00   0.00   0.59
    12   1    -0.13  -0.28  -0.00    -0.00  -0.00   0.57    -0.00  -0.00  -0.32
                     13                     14                     15
                      A                      A                      A
 Frequencies --    958.7185               990.1991              1044.3842
 Red. masses --      1.3172                 5.1291                 2.1985
 Frc consts  --      0.7133                 2.9630                 1.4129
 IR Inten    --      0.0000                49.1272                15.4382
  Atom  AN      X      Y      Z        X      Y      Z        X      Y      Z
     1   6     0.00  -0.00  -0.00     0.02  -0.00   0.00     0.01  -0.00   0.00
     2   6    -0.00   0.00   0.07     0.12   0.31  -0.00    -0.08  -0.00  -0.00
     3   6     0.00  -0.00  -0.10     0.08  -0.17   0.00     0.01  -0.16   0.00
     4   6    -0.00   0.00  -0.00    -0.29  -0.00  -0.00     0.21  -0.00  -0.00
     5   6    -0.00  -0.00   0.10     0.08   0.17   0.00     0.01   0.16   0.00
     6   6    -0.00  -0.00  -0.07     0.12  -0.31  -0.00    -0.08   0.00  -0.00
     7   8    -0.00   0.00  -0.00    -0.06   0.00  -0.00     0.01   0.00  -0.00
     8   1    -0.00   0.00  -0.39    -0.15   0.47   0.00    -0.42   0.19   0.00
     9   1     0.00  -0.00   0.58     0.04  -0.18  -0.00    -0.29  -0.34  -0.00
    10   1    -0.00   0.00   0.00    -0.29  -0.00   0.00     0.23   0.00   0.00
    11   1     0.00  -0.00  -0.58     0.04   0.18  -0.00    -0.29   0.34  -0.00
    12   1    -0.00  -0.00   0.39    -0.15  -0.47   0.00    -0.42  -0.19   0.00
                     16                     17                     18
                      A                      A                      A
 Frequencies --   1088.8940              1168.8737              1185.4176
 Red. masses --      1.5516                 1.0706                 1.1312
 Frc consts  --      1.0839                 0.8618                 0.9365
 IR Inten    --      5.1912                 7.7941                31.8604
  Atom  AN      X      Y      Z        X      Y      Z        X      Y      Z
     1   6     0.00   0.08   0.00    -0.00  -0.02  -0.00    -0.01   0.00   0.00
     2   6    -0.08  -0.07  -0.00    -0.01   0.00   0.00     0.05   0.00  -0.00
     3   6     0.03  -0.06   0.00    -0.03  -0.02  -0.00    -0.04  -0.04   0.00
     4   6    -0.00   0.11  -0.00    -0.00   0.05   0.00    -0.02  -0.00  -0.00
     5   6    -0.03  -0.06   0.00     0.03  -0.02  -0.00    -0.04   0.04   0.00
     6   6     0.08  -0.07  -0.00     0.01   0.00   0.00     0.05  -0.00  -0.00
     7   8    -0.00  -0.02  -0.00     0.00   0.00   0.00     0.01  -0.00  -0.00
     8   1    -0.48   0.16   0.00     0.17  -0.10  -0.00     0.43  -0.22   0.00
     9   1     0.26   0.06  -0.00    -0.42  -0.24   0.00    -0.43  -0.26  -0.00
    10   1    -0.00   0.55   0.00    -0.00   0.67  -0.00    -0.02  -0.00  -0.00
    11   1    -0.26   0.06  -0.00     0.42  -0.24   0.00    -0.43   0.26  -0.00
    12   1     0.48   0.16   0.00    -0.17  -0.10  -0.00     0.43   0.22   0.00
                     19                     20                     21
                      A                      A                      A
 Frequencies --   1275.0586              1361.6436              1428.9741
 Red. masses --      2.7210                 1.7951                 2.4693
 Frc consts  --      2.6064                 1.9609                 2.9708
 IR Inten    --      8.6063                24.4718                82.4747
  Atom  AN      X      Y      Z        X      Y      Z        X      Y      Z
     1   6    -0.00   0.32   0.00    -0.00   0.03   0.00    -0.15  -0.00   0.00
     2   6     0.04  -0.10   0.00     0.13  -0.08   0.00    -0.14   0.10  -0.00
     3   6    -0.09  -0.06  -0.00    -0.03  -0.01  -0.00     0.01  -0.10   0.00
     4   6     0.00   0.08  -0.00     0.00   0.15   0.00     0.05   0.00  -0.00
     5   6     0.09  -0.06  -0.00     0.03  -0.01  -0.00     0.01   0.10   0.00
     6   6    -0.04  -0.10  -0.00    -0.13  -0.08   0.00    -0.14  -0.10  -0.00
     7   8     0.00  -0.03  -0.00    -0.00   0.01  -0.00     0.15   0.00  -0.00
     8   1     0.48  -0.36  -0.00    -0.35   0.20  -0.00     0.41  -0.23  -0.00
     9   1     0.22   0.11   0.00    -0.38  -0.20   0.00     0.45   0.13   0.00
    10   1     0.00  -0.10   0.00     0.00  -0.49   0.00     0.07  -0.00   0.00
    11   1    -0.22   0.11   0.00     0.38  -0.20   0.00     0.45  -0.13   0.00
    12   1    -0.48  -0.36   0.00     0.35   0.20  -0.00     0.41   0.23  -0.00
                     22                     23                     24
                      A                      A                      A
 Frequencies --   1506.5494              1578.7743              1591.1175
 Red. masses --      2.9470                 4.5183                 4.8903
 Frc consts  --      3.9410                 6.6353                 7.2944
 IR Inten    --     31.8736               323.9851                29.5999
  Atom  AN      X      Y      Z        X      Y      Z        X      Y      Z
     1   6    -0.00   0.12  -0.00     0.39  -0.00  -0.00    -0.00  -0.21  -0.00
     2   6    -0.17  -0.03   0.00    -0.01   0.06   0.00    -0.10   0.15   0.00
     3   6     0.22   0.04  -0.00    -0.18  -0.10  -0.00    -0.05  -0.21  -0.00
     4   6    -0.00   0.05   0.00     0.13   0.00   0.00    -0.00   0.38   0.00
     5   6    -0.22   0.04  -0.00    -0.18   0.10  -0.00     0.05  -0.21  -0.00
     6   6     0.17  -0.03   0.00    -0.01  -0.06   0.00     0.10   0.15   0.00
     7   8     0.00  -0.03   0.00    -0.21   0.00   0.00     0.00   0.01   0.00
     8   1     0.10  -0.21   0.00     0.35  -0.11   0.00     0.29  -0.08   0.00
     9   1    -0.35  -0.30  -0.00     0.40   0.22   0.00     0.24  -0.07  -0.00
    10   1    -0.00  -0.54  -0.00     0.16  -0.00   0.00    -0.00  -0.58   0.00
    11   1     0.35  -0.30  -0.00     0.40  -0.22   0.00    -0.24  -0.07   0.00
    12   1    -0.10  -0.21   0.00     0.35   0.11  -0.00    -0.29  -0.08  -0.00
                     25                     26                     27
                      A                      A                      A
 Frequencies --   1662.8888              3136.2517              3140.1632
 Red. masses --      6.0188                 1.0833                 1.0881
 Frc consts  --      9.8058                 6.2778                 6.3213
 IR Inten    --    459.8708                30.3124                61.3519
  Atom  AN      X      Y      Z        X      Y      Z        X      Y      Z
     1   6     0.29  -0.00   0.00     0.00  -0.00   0.00    -0.00   0.00   0.00
     2   6    -0.29   0.04  -0.00     0.01   0.01  -0.00     0.01   0.01  -0.00
     3   6     0.28   0.08   0.00     0.03  -0.05   0.00     0.03  -0.05   0.00
     4   6    -0.13   0.00  -0.00    -0.02  -0.00   0.00    -0.00   0.00  -0.00
     5   6     0.28  -0.08   0.00     0.03   0.05   0.00    -0.03  -0.05   0.00
     6   6    -0.29  -0.04  -0.00     0.01  -0.01  -0.00    -0.01   0.01  -0.00
     7   8    -0.09   0.00   0.00     0.00   0.00  -0.00     0.00  -0.00   0.00
     8   1     0.22  -0.27   0.00    -0.09  -0.16  -0.00    -0.09  -0.17  -0.00
     9   1    -0.29  -0.24  -0.00    -0.32   0.56  -0.00    -0.33   0.59   0.00
    10   1    -0.14  -0.00  -0.00     0.30   0.00  -0.00     0.00  -0.00  -0.00
    11   1    -0.29   0.24  -0.00    -0.32  -0.56  -0.00     0.33   0.59  -0.00
    12   1     0.22   0.27   0.00    -0.09   0.16   0.00     0.09  -0.17   0.00
                     28                     29                     30
                      A                      A                      A
 Frequencies --   3182.4668              3183.0547              3194.7934
 Red. masses --      1.0896                 1.0922                 1.0952
 Frc consts  --      6.5017                 6.5198                 6.5860
 IR Inten    --     58.0628               106.1537                23.9882
  Atom  AN      X      Y      Z        X      Y      Z        X      Y      Z
     1   6    -0.00  -0.00  -0.00    -0.00   0.00  -0.00     0.00   0.00   0.00
     2   6    -0.03  -0.04   0.00    -0.03  -0.05   0.00     0.02   0.03  -0.00
     3   6     0.00  -0.00  -0.00     0.01  -0.01  -0.00    -0.01   0.02   0.00
     4   6    -0.05  -0.00   0.00    -0.00   0.00   0.00    -0.07   0.00  -0.00
     5   6     0.00   0.00  -0.00    -0.01  -0.01  -0.00    -0.01  -0.02   0.00
     6   6    -0.03   0.04   0.00     0.03  -0.05   0.00     0.02  -0.03  -0.00
     7   8     0.00   0.00  -0.00     0.00  -0.00  -0.00    -0.00  -0.00   0.00
     8   1     0.29   0.51   0.00     0.34   0.59   0.00    -0.17  -0.30   0.00
     9   1    -0.02   0.03  -0.00    -0.10   0.16   0.00     0.13  -0.24  -0.00
    10   1     0.55   0.00  -0.00     0.00  -0.00   0.00     0.78   0.00  -0.00
    11   1    -0.02  -0.03  -0.00     0.10   0.16  -0.00     0.13   0.24  -0.00
    12   1     0.29  -0.51   0.00    -0.34   0.59  -0.00    -0.17   0.30   0.00

 -------------------
 - Thermochemistry -
 -------------------
 Temperature   298.150 Kelvin.  Pressure   1.00000 Atm.
 Atom     1 has atomic number  6 and mass  12.00000
 Atom     2 has atomic number  6 and mass  12.00000
 Atom     3 has atomic number  6 and mass  12.00000
 Atom     4 has atomic number  6 and mass  12.00000
 Atom     5 has atomic number  6 and mass  12.00000
 Atom     6 has atomic number  6 and mass  12.00000
 Atom     7 has atomic number  8 and mass  15.99491
 Atom     8 has atomic number  1 and mass   1.00783
 Atom     9 has atomic number  1 and mass   1.00783
 Atom    10 has atomic number  1 and mass   1.00783
 Atom    11 has atomic number  1 and mass   1.00783
 Atom    12 has atomic number  1 and mass   1.00783
 Molecular mass:    93.03404 amu.
 Principal axes and moments of inertia in atomic units:
                           1         2         3
     Eigenvalues --   314.72892 670.21063 984.93955
           X            1.00000  -0.00000   0.00000
           Y            0.00000   1.00000   0.00000
           Z            0.00000   0.00000   1.00000
 This molecule is an asymmetric top.
 Rotational symmetry number  2.
 Rotational temperatures (Kelvin)      0.27520     0.12923     0.08794
 Rotational constants (GHZ):           5.73427     2.69280     1.83234
 Zero-point vibrational energy     241131.9 (Joules/Mol)
                                   57.63190 (Kcal/Mol)
 Warning -- explicit consideration of   5 degrees of freedom as
           vibrations may cause significant error
 Vibrational temperatures:    278.30   627.71   650.09   735.33   773.44
          (Kelvin)            897.22   997.90  1037.12  1166.50  1209.44
                             1234.68  1378.61  1379.38  1424.68  1502.64
                             1566.68  1681.75  1705.55  1834.52  1959.10
                             2055.98  2167.59  2271.50  2289.26  2392.53
                             4512.37  4517.99  4578.86  4579.71  4596.60
 
 Zero-point correction=                           0.091842 (Hartree/Particle)
 Thermal correction to Energy=                    0.097031
 Thermal correction to Enthalpy=                  0.097976
 Thermal correction to Gibbs Free Energy=         0.063679
 Sum of electronic and zero-point Energies=           -306.664853
 Sum of electronic and thermal Energies=              -306.659664
 Sum of electronic and thermal Enthalpies=            -306.658720
 Sum of electronic and thermal Free Energies=         -306.693016
 
                     E (Thermal)             CV                S
                      KCal/Mol        Cal/Mol-Kelvin    Cal/Mol-Kelvin
 Total                   60.888             20.247             72.184
 Electronic               0.000              0.000              0.000
 Translational            0.889              2.981             39.503
 Rotational               0.889              2.981             25.455
 Vibrational             59.111             14.285              7.226
 Vibration     1          0.635              1.849              2.195
 Vibration     2          0.797              1.391              0.838
 Vibration     3          0.810              1.357              0.790
 Vibration     4          0.866              1.225              0.631
 Vibration     5          0.893              1.167              0.571
                       Q            Log10(Q)             Ln(Q)
 Total Bot       0.512629D-29        -29.290197        -67.443171
 Total V=0       0.900087D+13         12.954285         29.828343
 Vib (Bot)       0.178153D-41        -41.749208        -96.131104
 Vib (Bot)    1  0.103341D+01          0.014273          0.032865
 Vib (Bot)    2  0.397412D+00         -0.400759         -0.922781
 Vib (Bot)    3  0.378972D+00         -0.421393         -0.970293
 Vib (Bot)    4  0.318401D+00         -0.497025         -1.144443
 Vib (Bot)    5  0.295404D+00         -0.529584         -1.219413
 Vib (V=0)       0.312805D+01          0.495274          1.140410
 Vib (V=0)    1  0.164801D+01          0.216961          0.499571
 Vib (V=0)    2  0.113870D+01          0.056409          0.129887
 Vib (V=0)    3  0.112739D+01          0.052075          0.119906
 Vib (V=0)    4  0.109277D+01          0.038530          0.088718
 Vib (V=0)    5  0.108074D+01          0.033723          0.077649
 Electronic      0.100000D+01          0.000000          0.000000
 Translational   0.352709D+08          7.547417         17.378569
 Rotational      0.815820D+05          4.911594         11.309364
 -------------------------------------------------------------------
 Center     Atomic                   Forces (Hartrees/Bohr)
 Number     Number              X              Y              Z
 -------------------------------------------------------------------
      1        6          -0.000003195    0.000000000   -0.000000000
      2        6           0.000002928    0.000001357    0.000000000
      3        6          -0.000005808    0.000003378    0.000000000
      4        6           0.000000405    0.000000000    0.000000000
      5        6          -0.000005808   -0.000003378   -0.000000000
      6        6           0.000002928   -0.000001357    0.000000000
      7        8           0.000004305   -0.000000000    0.000000000
      8        1          -0.000000621   -0.000000757   -0.000000000
      9        1           0.000001496   -0.000001163   -0.000000000
     10        1           0.000002493   -0.000000000    0.000000000
     11        1           0.000001496    0.000001163   -0.000000000
     12        1          -0.000000621    0.000000757   -0.000000000
 -------------------------------------------------------------------
 Cartesian Forces:  Max     0.000005808 RMS     0.000002077

 **********************************************************************

             Generation of the Franck-Condon spectrum

 **********************************************************************


     ==================================================
            Parameters for vibronic calculations
     ==================================================


 Using the following non-standard input for vibronic spectroscopy:
 TimeDependent Temperature=Value=300 Transition=Absorption Spectrum=(HWHM=100.) Print=(Spectra=All,Matrix=JK)
 --- end of non-standard input.

     ==================================================
               Information on the Simulation
     ==================================================

 General framework: TIME-DEPENDENT
 Spectroscopy: ONE-PHOTON ABSORPTION
 Model for to the transition: ADIABATIC HESSIAN
 Approx. of the electronic transition moment(s): FC
 Temperature of simulation: 300.00K

     ==================================================
                  Treatment of Input Data
     ==================================================

 Initial State
 -------------
 Data taken from current calculation.
 Normal modes recovered from file.

 Final State
 -----------
 Data taken from checkpoint file "phenolate_ex.chk"
 Normal modes recovered from file.

 NOTE: Using excited electronic state number  1.
 WARNING: Charge is different between initial and final state.
          Gaussian will assume that the transition is fully-allowed for
          the FC calculations.

     ==================================================
                  Superposition Procedure
     ==================================================

 Initial state structure is set in Eckart orientation.
 Final state structure is superposed to it.

              New orientation in initial state              
 ---------------------------------------------------------------------
 Center     Atomic                     Coordinates (Angstroms)
 Number     Number                        X           Y           Z
 ---------------------------------------------------------------------
      1          6                    1.024688    0.000000    0.000000
      2          6                    0.239948    1.209080    0.000000
      3          6                   -1.145932    1.197630    0.000000
      4          6                   -1.873322    0.000000    0.000000
      5          6                   -1.145932   -1.197630    0.000000
      6          6                    0.239948   -1.209080    0.000000
      7          8                    2.295498    0.000000    0.000000
      8          1                    0.786658    2.150570    0.000000
      9          1                   -1.682192    2.148250    0.000000
     10          1                   -2.960852    0.000000    0.000000
     11          1                   -1.682192   -2.148250    0.000000
     12          1                    0.786658   -2.150570    0.000000
 ---------------------------------------------------------------------
               New orientation in final state               
 ---------------------------------------------------------------------
 Center     Atomic                     Coordinates (Angstroms)
 Number     Number                        X           Y           Z
 ---------------------------------------------------------------------
      1          6                    0.996360    0.000000    0.000000
      2          6                    0.239980    1.241160    0.000000
      3          6                   -1.127130    1.218490    0.000000
      4          6                   -1.825060    0.000000    0.000000
      5          6                   -1.127130   -1.218490    0.000000
      6          6                    0.239980   -1.241160    0.000000
      7          8                    2.249210    0.000000    0.000000
      8          1                    0.803710    2.170580    0.000000
      9          1                   -1.698170    2.148000    0.000000
     10          1                   -2.914200    0.000000    0.000000
     11          1                   -1.698170   -2.148000    0.000000
     12          1                    0.803710   -2.170580    0.000000
 ---------------------------------------------------------------------

     ==================================================
                 Duschinsky Transformation
     ==================================================

 Duschinsky matrix
 -----------------
 Note: The normal coordinates of the final state (columns) are expressed
       in the basis set of the normal coordinates of the initial state (rows)
                 1             2             3             4             5 
      1   0.996674D+00 -0.956317D-05 -0.561580D-01  0.785579D-03  0.148876D-02
      2  -0.100354D-04 -0.996489D+00 -0.329105D-05  0.111786D-03 -0.102803D-03
      3   0.244842D-03  0.110961D-03  0.198156D-01  0.991190D+00  0.638520D-01
      4  -0.435989D-01  0.350089D-05 -0.893298D+00  0.175684D-01  0.622716D-02
      5  -0.159235D-02 -0.178608D-04  0.278538D-02 -0.617361D-01  0.994764D+00
      6  -0.185631D-05 -0.274312D-04 -0.226085D-02 -0.104906D+00  0.108817D-01
      7   0.518916D-01 -0.105138D-04  0.408774D+00 -0.840982D-02  0.537588D-02
      8  -0.104138D-01  0.250953D-05  0.157379D+00 -0.288381D-02 -0.271250D-02
      9   0.384064D-05  0.828607D-01  0.868668D-05 -0.365439D-04 -0.103412D-02
     10   0.154204D-03  0.647980D-05 -0.121363D-03  0.314096D-02 -0.299967D-01
     11  -0.439891D-01  0.334667D-05  0.571260D-01 -0.920645D-03 -0.223135D-02
     12   0.580114D-03 -0.936976D-06 -0.576291D-01  0.110270D-02  0.844804D-03
     13  -0.199573D-05 -0.111736D-01 -0.330341D-05  0.872337D-05  0.431888D-03
     14   0.466394D-03  0.893225D-05 -0.391810D-03  0.896961D-02 -0.671953D-01
     15  -0.426984D-04  0.208801D-05  0.354326D-04 -0.547011D-03 -0.338505D-02
     16   0.168038D-04 -0.371510D-05 -0.201014D-03 -0.834752D-02  0.858437D-03
     17   0.113920D-04  0.343192D-05  0.388195D-03  0.192387D-01  0.256539D-03
     18  -0.191413D-03 -0.102364D-05  0.107577D-03 -0.230693D-02 -0.260699D-02
     19  -0.245944D-04 -0.225074D-05  0.461083D-03  0.233958D-01  0.384978D-02
     20   0.172395D-04 -0.542330D-05 -0.507929D-03 -0.232668D-01  0.573354D-03
     21   0.115235D-03  0.127605D-05 -0.749894D-04  0.165753D-02 -0.630094D-02
     22  -0.551411D-04  0.427436D-05  0.516478D-03  0.227862D-01  0.164338D-03
     23  -0.102313D-04 -0.161448D-05  0.191522D-05 -0.172620D-03  0.289753D-02
     24   0.171358D-04 -0.257817D-05 -0.215678D-03 -0.954896D-02  0.341690D-03
     25  -0.532769D-03 -0.348030D-05  0.343008D-03 -0.743229D-02  0.254018D-01
     26   0.291834D-04  0.492521D-06 -0.196424D-04  0.449413D-03 -0.322783D-02
     27   0.711609D-06  0.205783D-06  0.722918D-04  0.367039D-02  0.309494D-03
     28   0.139924D-04  0.198241D-06 -0.743471D-05  0.170617D-03 -0.412383D-03
     29  -0.163986D-05 -0.289351D-06 -0.354953D-04 -0.180096D-02 -0.870815D-04
     30   0.771723D-05  0.344388D-06  0.461580D-05 -0.807580D-04  0.334624D-02
                 6             7             8             9            10 
      1   0.157463D-04 -0.309687D-01 -0.554861D-04 -0.303645D-06  0.418136D-01
      2   0.389034D-05 -0.553001D-05  0.267443D-03 -0.834020D-01  0.508859D-06
      3  -0.105768D+00  0.727655D-05 -0.176549D-02 -0.798457D-04 -0.156824D-03
      4   0.736379D-03  0.411966D+00  0.745772D-03 -0.727679D-05  0.155561D+00
      5   0.177100D-01 -0.772531D-02  0.437606D-01 -0.102676D-02  0.272986D-02
      6  -0.992095D+00  0.121905D-02  0.879725D-03  0.126235D-03 -0.823453D-04
      7   0.114110D-02  0.909647D+00  0.780802D-03  0.227698D-04 -0.241865D-01
      8  -0.187526D-03 -0.279942D-01  0.214125D-02 -0.175362D-04  0.791225D+00
      9  -0.133766D-03  0.277451D-04  0.308554D-02 -0.994129D+00 -0.449739D-04
     10  -0.959274D-04 -0.421518D-03  0.967613D+00  0.329308D-02 -0.392987D-02
     11  -0.165105D-03 -0.302167D-01  0.175668D-02 -0.108261D-04  0.578874D+00
     12   0.545943D-04 -0.999760D-02 -0.619762D-04 -0.996530D-05  0.110713D+00
     13   0.484910D-04 -0.808678D-05 -0.327201D-03  0.684845D-01 -0.481862D-05
     14   0.766362D-03 -0.122065D-02  0.221785D+00 -0.590635D-03  0.491610D-02
     15  -0.429228D-03  0.215001D-03  0.593824D-01  0.353260D-03 -0.570026D-03
     16   0.192841D-01 -0.153472D-03 -0.297634D-03 -0.945075D-04  0.151175D-03
     17   0.440988D-01 -0.763328D-04  0.184403D-04 -0.148675D-04  0.388449D-04
     18  -0.985271D-03  0.701675D-03  0.609820D-01  0.584158D-03 -0.133219D-02
     19   0.105607D-02  0.164982D-04 -0.700674D-03 -0.165130D-04 -0.118074D-03
     20  -0.164547D-01 -0.105906D-03 -0.179221D-03 -0.719463D-04  0.116229D-03
     21   0.346070D-03 -0.299979D-03  0.200241D-01 -0.994666D-04  0.453158D-03
     22   0.224708D-01  0.184732D-03 -0.175107D-03  0.984604D-04 -0.252173D-03
     23   0.874306D-04  0.345498D-05 -0.535351D-01 -0.183088D-03  0.144843D-03
     24  -0.298531D-01 -0.361882D-04  0.488397D-04 -0.330297D-04  0.835941D-04
     25  -0.163612D-02  0.129838D-02  0.455633D-01  0.812971D-03 -0.202890D-02
     26   0.171186D-04 -0.323374D-04  0.350963D-03 -0.104559D-04  0.171302D-04
     27   0.363782D-02 -0.858759D-05 -0.381023D-04 -0.355317D-05 -0.489185D-06
     28   0.398219D-04 -0.331110D-04 -0.172122D-02 -0.224344D-04  0.599302D-04
     29  -0.814866D-04  0.293623D-05 -0.550940D-05  0.971347D-06 -0.320894D-05
     30   0.933632D-04 -0.558328D-04 -0.254220D-02 -0.211858D-04  0.417020D-04
                11            12            13            14            15 
      1  -0.533341D-03 -0.278207D-01  0.717903D-04 -0.867693D-06 -0.105454D-02
      2  -0.105397D-03 -0.158785D-05 -0.261760D-05  0.544099D-02 -0.204878D-05
      3  -0.426291D-02 -0.590917D-05  0.668090D-03  0.308176D-04  0.124033D-05
      4  -0.445871D-03  0.202081D-01 -0.838581D-04 -0.353668D-06 -0.737580D-01
      5   0.596612D-01 -0.318701D-03  0.102416D-02  0.320841D-03 -0.768295D-03
      6   0.231159D-02  0.383320D-04 -0.398070D-03 -0.344022D-04  0.300390D-04
      7   0.165950D-02 -0.168182D-01 -0.145633D-03 -0.419067D-05  0.420197D-01
      8  -0.625768D-02  0.538836D+00 -0.197644D-03 -0.123991D-04 -0.240570D+00
      9  -0.144103D-02 -0.772554D-05  0.360934D-03 -0.691684D-01 -0.323391D-05
     10  -0.226562D+00 -0.682426D-03 -0.543446D-01 -0.234422D-04 -0.218702D-03
     11  -0.683783D-03 -0.794003D+00  0.674362D-03  0.427582D-05  0.168346D+00
     12  -0.347682D-02  0.278790D+00  0.125240D-02  0.215351D-04  0.952134D+00
     13  -0.769820D-03 -0.690456D-05  0.306592D-02 -0.997583D+00  0.156227D-04
     14   0.971385D+00  0.379611D-02 -0.219249D-01 -0.953595D-03  0.189834D-02
     15   0.860049D-02  0.373804D-03  0.996744D+00  0.302544D-02 -0.122051D-02
     16  -0.280089D-02 -0.113870D-03  0.222404D-02  0.295061D-03 -0.103113D-02
     17   0.120368D-03 -0.147704D-04  0.370805D-04  0.214989D-04 -0.101500D-03
     18   0.224190D-02  0.541787D-03 -0.279780D-01 -0.752087D-03  0.206161D-02
     19  -0.291930D-02  0.129088D-04  0.700695D-03  0.154129D-04  0.713573D-04
     20  -0.151633D-02 -0.586115D-04  0.536329D-03  0.643138D-04 -0.876459D-04
     21   0.285737D-01 -0.775890D-05 -0.121027D-01  0.394123D-04 -0.187914D-03
     22   0.399769D-03  0.941758D-04 -0.374211D-03 -0.858283D-04  0.184492D-03
     23  -0.127590D-01 -0.985679D-04 -0.305044D-01 -0.418887D-04 -0.825010D-04
     24  -0.234676D-03 -0.337480D-04  0.171518D-03  0.334459D-04 -0.703117D-04
     25  -0.158251D-01  0.585983D-03 -0.324160D-01 -0.678005D-03  0.154763D-02
     26  -0.981565D-02 -0.619953D-04  0.108273D-01  0.676922D-04 -0.104834D-03
     27  -0.164237D-03 -0.160464D-05  0.520213D-04  0.409924D-05 -0.808676D-05
     28   0.285651D-02 -0.329900D-05 -0.432525D-02 -0.381172D-05 -0.234252D-04
     29  -0.222080D-04  0.523332D-06  0.183497D-04  0.180093D-05 -0.879138D-05
     30  -0.280451D-02 -0.251506D-04  0.134586D-02  0.153445D-04 -0.277788D-04
                16            17            18            19            20 
      1  -0.294031D-04 -0.432322D-05  0.288979D-03 -0.199083D-04 -0.434673D-04
      2  -0.106034D-04  0.143357D-05  0.343525D-04  0.866639D-05 -0.800234D-05
      3   0.647907D-02 -0.174847D-01  0.208402D-02  0.161077D-01  0.262921D-01
      4  -0.831280D-04  0.134878D-05  0.156043D-03  0.167197D-04 -0.187975D-04
      5  -0.138948D-02  0.432189D-03  0.167843D-03  0.300558D-02 -0.143691D-02
      6   0.256203D-01  0.471292D-01 -0.896506D-03  0.256919D-02 -0.172592D-01
      7   0.142784D-03  0.212680D-05 -0.805597D-03 -0.102459D-04  0.136277D-03
      8  -0.288250D-03 -0.156750D-04  0.109120D-02 -0.578362D-04 -0.114465D-03
      9  -0.588303D-04  0.392562D-05  0.336521D-03  0.320353D-04 -0.672518D-04
     10  -0.584806D-03  0.741716D-03 -0.605969D-01  0.103008D-03 -0.455619D-03
     11   0.223288D-04 -0.108543D-04  0.735118D-03 -0.433793D-04 -0.102534D-03
     12   0.950511D-03  0.121183D-04 -0.187668D-02  0.927656D-05  0.150692D-03
     13   0.273801D-03 -0.691611D-05 -0.668818D-03 -0.386515D-04  0.788046D-04
     14   0.264341D-02 -0.495300D-03 -0.184191D-01 -0.385469D-02  0.139433D-02
     15  -0.189348D-02 -0.671362D-04  0.239021D-01  0.686764D-03 -0.390157D-03
     16   0.991154D+00 -0.944145D-01 -0.501749D-02 -0.343921D-01  0.615189D-01
     17   0.875608D-01  0.990947D+00  0.109902D-01 -0.100767D-01  0.599327D-01
     18   0.467082D-02 -0.111023D-01  0.996168D+00  0.824243D-02 -0.216757D-02
     19  -0.147894D-01  0.848654D-02  0.802143D-02 -0.969727D+00 -0.232095D+00
     20  -0.703550D-01 -0.484237D-01  0.405996D-02 -0.227492D+00  0.965891D+00
     21  -0.366861D-03 -0.210928D-03  0.422044D-01  0.410202D-02 -0.424088D-02
     22   0.580661D-01  0.293122D-01 -0.155168D-02  0.643182D-01 -0.759998D-03
     23  -0.237046D-03  0.204749D-03 -0.112876D-01  0.118326D-02 -0.182689D-02
     24  -0.199500D-01 -0.521020D-01  0.364284D-03 -0.384311D-01  0.677730D-01
     25   0.294697D-02 -0.991973D-03 -0.193192D-01 -0.138080D-01  0.928994D-02
     26  -0.185183D-03  0.210010D-03 -0.157940D-01  0.121920D-03 -0.895827D-04
     27   0.778078D-02 -0.191739D-01 -0.226891D-04 -0.185937D-01  0.584081D-02
     28  -0.492906D-04  0.123804D-03 -0.109108D-01 -0.111843D-03  0.103909D-03
     29   0.131334D-01 -0.921409D-02 -0.233685D-03  0.741949D-02 -0.854540D-02
     30  -0.223810D-04 -0.113231D-03  0.132364D-01  0.452634D-03 -0.196351D-03
                21            22            23            24            25 
      1  -0.715117D-04 -0.782590D-04  0.192579D-04 -0.292010D-03 -0.609655D-03
      2  -0.698446D-05 -0.983154D-05  0.225684D-05 -0.278718D-04 -0.526940D-04
      3  -0.637518D-03  0.196354D-01 -0.951145D-02 -0.205445D-02 -0.483864D-02
      4  -0.148695D-04 -0.189534D-04  0.467065D-05 -0.500198D-04 -0.890371D-04
      5   0.137206D-02 -0.101540D-02  0.828949D-03  0.118937D-01  0.240032D-01
      6   0.362805D-03 -0.336445D-01 -0.789265D-02  0.111543D-02  0.208825D-02
      7   0.182537D-03  0.208751D-03 -0.518780D-04  0.730509D-03  0.148806D-02
      8  -0.180240D-03 -0.191608D-03  0.446704D-04 -0.675069D-03 -0.137867D-02
      9  -0.753272D-04 -0.890728D-04  0.225006D-04 -0.294545D-03 -0.586093D-03
     10  -0.402368D-02 -0.835493D-03  0.210594D-02  0.656993D-01  0.217935D-01
     11  -0.160068D-03 -0.172875D-03  0.409635D-04 -0.613514D-03 -0.125555D-02
     12   0.194234D-03  0.208666D-03 -0.469499D-04  0.667615D-03  0.131549D-02
     13   0.855284D-04  0.981277D-04 -0.232132D-04  0.305696D-03  0.595766D-03
     14  -0.245232D-01  0.415318D-03  0.300529D-03  0.236371D-01 -0.217021D-01
     15   0.200956D-01 -0.156255D-03  0.174291D-03  0.136348D-01 -0.394147D-01
     16   0.558622D-03  0.485257D-01 -0.242092D-01  0.310929D-02  0.439950D-02
     17  -0.135693D-03  0.584012D-01  0.191317D-01 -0.259109D-03 -0.872112D-04
     18  -0.371773D-01 -0.111483D-02  0.458939D-03  0.122843D-01 -0.289359D-01
     19   0.209056D-02 -0.626482D-01  0.211741D-01  0.418760D-02  0.911997D-02
     20   0.439236D-02 -0.658014D-01 -0.492464D-01  0.742774D-02  0.106194D-01
     21   0.963542D+00  0.331196D-02 -0.362242D-02 -0.176195D+00  0.192214D+00
     22   0.315784D-02 -0.788440D+00  0.606479D+00 -0.234806D-01 -0.135370D-01
     23   0.245422D+00 -0.173425D-02  0.202182D-01  0.865857D+00 -0.430169D+00
     24  -0.157113D-02  0.601823D+00  0.791981D+00 -0.170707D-01 -0.889450D-03
     25   0.909581D-01  0.116964D-01 -0.212406D-01 -0.461239D+00 -0.879137D+00
     26   0.206511D-01  0.124572D-03  0.551032D-04  0.770659D-02 -0.199833D-01
     27   0.127909D-03 -0.202710D-01  0.268944D-02 -0.220887D-03 -0.245615D-03
     28  -0.121056D-01  0.677621D-04 -0.353835D-03 -0.108241D-01 -0.790409D-02
     29  -0.235198D-04 -0.786388D-02  0.717568D-02 -0.400424D-03 -0.411236D-03
     30  -0.813543D-02 -0.219956D-03  0.342817D-03  0.657190D-02  0.177410D-01
                26            27            28            29            30 
      1   0.119452D-04 -0.169794D-05 -0.432841D-04  0.903521D-05  0.116750D-05
      2   0.105045D-05 -0.420817D-06 -0.243994D-05  0.786524D-06  0.202797D-07
      3   0.101740D-03 -0.231867D-02 -0.361580D-03  0.807915D-04  0.279711D-02
      4   0.143225D-05 -0.842073D-06 -0.204517D-05  0.990080D-06 -0.131181D-07
      5  -0.514123D-02 -0.785334D-04  0.161507D-02 -0.118104D-02 -0.769551D-05
      6  -0.450763D-04  0.372137D-02  0.168941D-03 -0.390292D-04 -0.187622D-02
      7  -0.281646D-04  0.566356D-05  0.938497D-04 -0.210415D-04 -0.235412D-05
      8   0.218385D-04 -0.302126D-05 -0.793428D-04  0.164392D-04  0.215048D-05
      9   0.107594D-04 -0.270002D-05 -0.331455D-04  0.792407D-05  0.768303D-06
     10   0.376832D-02  0.223557D-04 -0.524090D-03 -0.186273D-02  0.693682D-05
     11   0.206210D-04 -0.308571D-05 -0.737723D-04  0.155013D-04  0.196828D-05
     12  -0.180100D-04  0.332681D-05  0.611984D-04 -0.134097D-04 -0.155923D-05
     13  -0.911223D-05  0.223037D-05  0.283340D-04 -0.673312D-05 -0.659883D-06
     14  -0.312943D-02  0.166739D-04  0.797081D-02  0.568248D-02  0.111385D-04
     15   0.745968D-02  0.949220D-05 -0.771667D-02 -0.663571D-02  0.408841D-06
     16  -0.710100D-04 -0.131365D-01  0.596495D-04 -0.414113D-04 -0.870077D-02
     17   0.262251D-04  0.206167D-01  0.102210D-03 -0.356390D-05  0.220579D-02
     18  -0.177264D-01 -0.122474D-03  0.952037D-02 -0.112872D-01  0.252399D-05
     19  -0.109402D-03 -0.151991D-01  0.226477D-03 -0.559672D-04  0.105401D-01
     20  -0.108765D-03 -0.727133D-02  0.198122D-03 -0.603911D-04  0.133987D-01
     21   0.145424D-01  0.746051D-04 -0.370933D-02 -0.111289D-01  0.154913D-04
     22   0.658069D-04 -0.193764D-01 -0.222806D-03  0.634975D-04 -0.537147D-02
     23   0.170238D-01  0.438699D-04 -0.105810D-01 -0.100275D-01 -0.280891D-05
     24  -0.217943D-04  0.765936D-02  0.100445D-03 -0.262237D-04 -0.304282D-02
     25   0.227194D-01 -0.380089D-03 -0.609890D-02  0.145236D-01 -0.635174D-04
     26  -0.605989D+00 -0.426533D-02  0.774768D+00  0.176450D+00  0.213261D-03
     27   0.961013D-03  0.942512D+00  0.618151D-02 -0.648041D-03 -0.332213D+00
     28   0.192849D+00 -0.290625D-02  0.358851D+00 -0.912990D+00  0.772698D-03
     29   0.368127D-03  0.332090D+00  0.173533D-02  0.504556D-03  0.942979D+00
     30   0.770810D+00 -0.395721D-02  0.520134D+00  0.366974D+00 -0.577587D-04

 Shift Vector
 ------------
                 1 
      1  -0.137299D-10
      2  -0.203074D-10
      3  -0.139468D-06
      4   0.368388D-10
      5   0.272732D+02
      6  -0.829263D-07
      7  -0.311547D-10
      8   0.211163D-10
      9  -0.316230D-12
     10  -0.240149D+01
     11   0.204945D-10
     12   0.988238D-11
     13   0.690735D-12
     14   0.208851D+01
     15  -0.287901D+01
     16   0.248566D-07
     17  -0.241439D-06
     18  -0.252415D+01
     19  -0.152227D-07
     20   0.363912D-07
     21  -0.596170D+00
     22  -0.399550D-07
     23   0.863242D+00
     24   0.165271D-06
     25  -0.294193D+01
     26  -0.118304D+00
     27  -0.877320D-08
     28  -0.169806D+00
     29  -0.276211D-06
     30   0.141849D-01

     ==================================================
              Calculations of Band Intensities
     ==================================================

 NOTE: Serial library FFTPack 4.0 used for FFT calculations

     ==================================================
                 Information on Transitions
     ==================================================

 Energy of the 0-0 transition:  28108.8209 cm^(-1)

     ==================================================
                       Final Spectrum
     ==================================================

 Band broadening simulated by mean of Gaussian functions with
 Half-Widths at Half-Maximum of  135.00 cm^(-1)

 Legend:
 -------
 1st col.: Energy (in cm^-1)
 2nd col.: Intensity at T=0K
 3rd col.: Intensity at T=300.0K
 Intensity: Molar absorption coefficient (in dm^3.mol^-1.cm^-1)
 ---------------------------------------------
    27108.9626    0.553827D-10    0.559631D+02
    27109.2961    0.556537D-10    0.559233D+02
    27109.6297    0.553292D-10    0.558835D+02
    27109.9633    0.555848D-10    0.558437D+02
    27110.2968    0.557174D-10    0.558040D+02
    27110.6304    0.559827D-10    0.557643D+02
    27110.9639    0.554375D-10    0.557247D+02
    27111.2975    0.555320D-10    0.556852D+02
    27111.6311    0.555855D-10    0.556457D+02
    27111.9646    0.558238D-10    0.556063D+02
    27112.2982    0.555905D-10    0.555670D+02
    27112.6318    0.558880D-10    0.555277D+02
    27112.9653    0.559261D-10    0.554885D+02
    27113.2989    0.561214D-10    0.554494D+02
    27113.6325    0.558241D-10    0.554104D+02
    27113.9660    0.561209D-10    0.553714D+02
    27114.2996    0.558199D-10    0.553326D+02
    27114.6332    0.561518D-10    0.552938D+02
    27114.9667    0.561845D-10    0.552551D+02
    27115.3003    0.565512D-10    0.552165D+02
    27115.6338    0.566882D-10    0.551780D+02
    27115.9674    0.564060D-10    0.551396D+02
    27116.3010    0.558682D-10    0.551013D+02
    27116.6345    0.562827D-10    0.550632D+02
    27116.9681    0.565695D-10    0.550251D+02
    27117.3017    0.566028D-10    0.549871D+02
    27117.6352    0.562047D-10    0.549493D+02
    27117.9688    0.567272D-10    0.549116D+02
    27118.3024    0.567997D-10    0.548740D+02
    27118.6359    0.563615D-10    0.548365D+02
    27118.9695    0.564533D-10    0.547991D+02
    27119.3031    0.567722D-10    0.547619D+02
    27119.6366    0.562950D-10    0.547248D+02
    27119.9702    0.566373D-10    0.546879D+02
    27120.3037    0.565979D-10    0.546510D+02
    27120.6373    0.570883D-10    0.546144D+02
    27120.9709    0.568036D-10    0.545778D+02
    27121.3044    0.573782D-10    0.545415D+02
    27121.6380    0.564958D-10    0.545052D+02
    27121.9716    0.569265D-10    0.544692D+02
    27122.3051    0.568495D-10    0.544333D+02
    27122.6387    0.572648D-10    0.543975D+02
    27122.9723    0.566261D-10    0.543619D+02
    27123.3058    0.570422D-10    0.543265D+02
    27123.6394    0.570655D-10    0.542912D+02
    27123.9729    0.568669D-10    0.542562D+02
    27124.3065    0.566561D-10    0.542213D+02
    27124.6401    0.574218D-10    0.541866D+02
    27124.9736    0.574418D-10    0.541520D+02
    27125.3072    0.576537D-10    0.541177D+02
    27125.6408    0.576263D-10    0.540835D+02
    27125.9743    0.576554D-10    0.540495D+02
    27126.3079    0.576326D-10    0.540158D+02
    27126.6415    0.579558D-10    0.539822D+02
    27126.9750    0.566694D-10    0.539488D+02
    27127.3086    0.571816D-10    0.539156D+02
    27127.6422    0.571998D-10    0.538827D+02
    27127.9757    0.567355D-10    0.538499D+02
    27128.3093    0.569382D-10    0.538174D+02
    27128.6428    0.574124D-10    0.537851D+02
    27128.9764    0.573936D-10    0.537530D+02
    27129.3100    0.573923D-10    0.537211D+02
    27129.6435    0.570291D-10    0.536895D+02
    27129.9771    0.575971D-10    0.536581D+02
    27130.3107    0.572118D-10    0.536269D+02
    27130.6442    0.576615D-10    0.535960D+02
    27130.9778    0.575462D-10    0.535653D+02
    27131.3114    0.579540D-10    0.535348D+02
    27131.6449    0.579699D-10    0.535046D+02
    27131.9785    0.581293D-10    0.534747D+02
    27132.3121    0.573603D-10    0.534450D+02
    27132.6456    0.577347D-10    0.534156D+02
    27132.9792    0.579340D-10    0.533864D+02
    27133.3127    0.580099D-10    0.533575D+02
    27133.6463    0.580147D-10    0.533288D+02
    27133.9799    0.579977D-10    0.533005D+02
    27134.3134    0.583946D-10    0.532724D+02
    27134.6470    0.584757D-10    0.532445D+02
    27134.9806    0.580243D-10    0.532170D+02
    27135.3141    0.587939D-10    0.531898D+02
    27135.6477    0.586029D-10    0.531628D+02
    27135.9813    0.588870D-10    0.531361D+02
    27136.3148    0.587322D-10    0.531098D+02
    27136.6484    0.593658D-10    0.530837D+02
    27136.9819    0.594504D-10    0.530579D+02
    27137.3155    0.594555D-10    0.530324D+02
    27137.6491    0.589175D-10    0.530073D+02
    27137.9826    0.589554D-10    0.529824D+02
    27138.3162    0.595636D-10    0.529579D+02
    27138.6498    0.593971D-10    0.529337D+02
    27138.9833    0.593233D-10    0.529098D+02
    27139.3169    0.595323D-10    0.528863D+02
    27139.6505    0.598992D-10    0.528631D+02
    27139.9840    0.598035D-10    0.528402D+02
    27140.3176    0.597819D-10    0.528176D+02
    27140.6512    0.602288D-10    0.527954D+02
    27140.9847    0.600849D-10    0.527735D+02
    27141.3183    0.606224D-10    0.527520D+02
    27141.6518    0.603760D-10    0.527309D+02
    27141.9854    0.611974D-10    0.527101D+02
    27142.3190    0.608645D-10    0.526896D+02
    27142.6525    0.614420D-10    0.526695D+02
    27142.9861    0.610618D-10    0.526498D+02
    27143.3197    0.612875D-10    0.526305D+02
    27143.6532    0.612840D-10    0.526115D+02
    27143.9868    0.616598D-10    0.525929D+02
    27144.3204    0.614992D-10    0.525747D+02
    27144.6539    0.620055D-10    0.525569D+02
    27144.9875    0.618553D-10    0.525394D+02
    27145.3211    0.622594D-10    0.525224D+02
    27145.6546    0.620409D-10    0.525057D+02
    27145.9882    0.628085D-10    0.524895D+02
    27146.3217    0.626700D-10    0.524736D+02
    27146.6553    0.630627D-10    0.524582D+02
    27146.9889    0.630681D-10    0.524432D+02
    27147.3224    0.636160D-10    0.524286D+02
    27147.6560    0.634751D-10    0.524144D+02
    27147.9896    0.640574D-10    0.524006D+02
    27148.3231    0.637491D-10    0.523873D+02
    27148.6567    0.637632D-10    0.523744D+02
    27148.9903    0.643094D-10    0.523619D+02
    27149.3238    0.642576D-10    0.523499D+02
    27149.6574    0.647764D-10    0.523383D+02
    27149.9909    0.648487D-10    0.523272D+02
    27150.3245    0.653562D-10    0.523165D+02
    27150.6581    0.656319D-10    0.523062D+02
    27150.9916    0.657694D-10    0.522964D+02
    27151.3252    0.662479D-10    0.522871D+02
    27151.6588    0.661404D-10    0.522783D+02
    27151.9923    0.677451D-10    0.522699D+02
    27152.3259    0.671784D-10    0.522620D+02
    27152.6595    0.679186D-10    0.522545D+02
    27152.9930    0.678897D-10    0.522476D+02
    27153.3266    0.687652D-10    0.522411D+02
    27153.6602    0.681805D-10    0.522351D+02
    27153.9937    0.689126D-10    0.522297D+02
    27154.3273    0.691315D-10    0.522247D+02
    27154.6608    0.698404D-10    0.522202D+02
    27154.9944    0.700617D-10    0.522162D+02
    27155.3280    0.709588D-10    0.522128D+02
    27155.6615    0.711243D-10    0.522098D+02
    27155.9951    0.715632D-10    0.522074D+02
    27156.3287    0.717471D-10    0.522055D+02
    27156.6622    0.728138D-10    0.522041D+02
    27156.9958    0.732408D-10    0.522032D+02
    27157.3294    0.740121D-10    0.522029D+02
    27157.6629    0.736065D-10    0.522031D+02
    27157.9965    0.751238D-10    0.522039D+02
    27158.3301    0.752448D-10    0.522052D+02
    27158.6636    0.762950D-10    0.522070D+02
    27158.9972    0.761758D-10    0.522094D+02
    27159.3307    0.770296D-10    0.522124D+02
    27159.6643    0.772240D-10    0.522160D+02
    27159.9979    0.785900D-10    0.522201D+02
    27160.3314    0.783678D-10    0.522247D+02
    27160.6650    0.795002D-10    0.522300D+02
    27160.9986    0.801900D-10    0.522358D+02
    27161.3321    0.808548D-10    0.522422D+02
    27161.6657    0.815497D-10    0.522492D+02
    27161.9993    0.822904D-10    0.522568D+02
    27162.3328    0.831629D-10    0.522650D+02
    27162.6664    0.845174D-10    0.522738D+02
    27162.9999    0.850056D-10    0.522833D+02
    27163.3335    0.854682D-10    0.522933D+02
    27163.6671    0.868634D-10    0.523039D+02
    27164.0006    0.875502D-10    0.523152D+02
    27164.3342    0.875761D-10    0.523270D+02
    27164.6678    0.890028D-10    0.523395D+02
    27165.0013    0.902374D-10    0.523527D+02
    27165.3349    0.907353D-10    0.523664D+02
    27165.6685    0.915711D-10    0.523809D+02
    27166.0020    0.928292D-10    0.523959D+02
    27166.3356    0.940090D-10    0.524116D+02
    27166.6692    0.951238D-10    0.524280D+02
    27167.0027    0.957677D-10    0.524450D+02
    27167.3363    0.972560D-10    0.524627D+02
    27167.6698    0.984847D-10    0.524811D+02
    27168.0034    0.100049D-09    0.525001D+02
    27168.3370    0.100743D-09    0.525198D+02
    27168.6705    0.102361D-09    0.525402D+02
    27169.0041    0.103671D-09    0.525613D+02
    27169.3377    0.104898D-09    0.525831D+02
    27169.6712    0.104436D-09    0.526055D+02
    27170.0048    0.106157D-09    0.526287D+02
    27170.3384    0.107480D-09    0.526526D+02
    27170.6719    0.109562D-09    0.526772D+02
    27171.0055    0.110215D-09    0.527025D+02
    27171.3391    0.112240D-09    0.527285D+02
    27171.6726    0.114177D-09    0.527552D+02
    27172.0062    0.115663D-09    0.527827D+02
    27172.3397    0.116567D-09    0.528109D+02
    27172.6733    0.118874D-09    0.528398D+02
    27173.0069    0.120608D-09    0.528695D+02
    27173.3404    0.122399D-09    0.529000D+02
    27173.6740    0.124091D-09    0.529311D+02
    27174.0076    0.126098D-09    0.529631D+02
    27174.3411    0.128241D-09    0.529958D+02
    27174.6747    0.130037D-09    0.530292D+02
    27175.0083    0.131238D-09    0.530635D+02
    27175.3418    0.133880D-09    0.530985D+02
    27175.6754    0.135280D-09    0.531343D+02
    27176.0089    0.137985D-09    0.531709D+02
    27176.3425    0.139827D-09    0.532083D+02
    27176.6761    0.142424D-09    0.532464D+02
    27177.0096    0.145128D-09    0.532854D+02
    27177.3432    0.147566D-09    0.533252D+02
    27177.6768    0.149464D-09    0.533658D+02
    27178.0103    0.152697D-09    0.534072D+02
    27178.3439    0.154687D-09    0.534494D+02
    27178.6775    0.157256D-09    0.534924D+02
    27179.0110    0.159966D-09    0.535363D+02
    27179.3446    0.163045D-09    0.535810D+02
    27179.6782    0.165956D-09    0.536266D+02
    27180.0117    0.168866D-09    0.536730D+02
    27180.3453    0.171250D-09    0.537203D+02
    27180.6788    0.174817D-09    0.537684D+02
    27181.0124    0.177408D-09    0.538173D+02
    27181.3460    0.180842D-09    0.538672D+02
    27181.6795    0.184157D-09    0.539179D+02
    27182.0131    0.187170D-09    0.539695D+02
    27182.3467    0.191004D-09    0.540219D+02
    27182.6802    0.194518D-09    0.540753D+02
    27183.0138    0.198033D-09    0.541295D+02
    27183.3474    0.201883D-09    0.541847D+02
    27183.6809    0.205481D-09    0.542407D+02
    27184.0145    0.209411D-09    0.542977D+02
    27184.3481    0.213398D-09    0.543555D+02
    27184.6816    0.217739D-09    0.544143D+02
    27185.0152    0.222145D-09    0.544740D+02
    27185.3487    0.226296D-09    0.545347D+02
    27185.6823    0.229842D-09    0.545962D+02
    27186.0159    0.234607D-09    0.546587D+02
    27186.3494    0.239499D-09    0.547222D+02
    27186.6830    0.243869D-09    0.547866D+02
    27187.0166    0.248841D-09    0.548520D+02
    27187.3501    0.253342D-09    0.549183D+02
    27187.6837    0.258815D-09    0.549856D+02
    27188.0173    0.264089D-09    0.550538D+02
    27188.3508    0.268698D-09    0.551231D+02
    27188.6844    0.274941D-09    0.551933D+02
    27189.0179    0.280467D-09    0.552645D+02
    27189.3515    0.286436D-09    0.553367D+02
    27189.6851    0.291802D-09    0.554099D+02
    27190.0186    0.297880D-09    0.554841D+02
    27190.3522    0.304207D-09    0.555594D+02
    27190.6858    0.310162D-09    0.556356D+02
    27191.0193    0.315008D-09    0.557129D+02
    27191.3529    0.322084D-09    0.557911D+02
    27191.6865    0.328813D-09    0.558705D+02
    27192.0200    0.335988D-09    0.559508D+02
    27192.3536    0.342704D-09    0.560322D+02
    27192.6872    0.350154D-09    0.561147D+02
    27193.0207    0.357985D-09    0.561982D+02
    27193.3543    0.365174D-09    0.562828D+02
    27193.6878    0.372147D-09    0.563684D+02
    27194.0214    0.380614D-09    0.564551D+02
    27194.3550    0.388712D-09    0.565429D+02
    27194.6885    0.397081D-09    0.566318D+02
    27195.0221    0.404939D-09    0.567218D+02
    27195.3557    0.414070D-09    0.568128D+02
    27195.6892    0.423362D-09    0.569050D+02
    27196.0228    0.432079D-09    0.569983D+02
    27196.3564    0.440834D-09    0.570927D+02
    27196.6899    0.450697D-09    0.571882D+02
    27197.0235    0.460412D-09    0.572848D+02
    27197.3571    0.470263D-09    0.573826D+02
    27197.6906    0.480144D-09    0.574815D+02
    27198.0242    0.490536D-09    0.575815D+02
    27198.3577    0.501502D-09    0.576827D+02
    27198.6913    0.512619D-09    0.577851D+02
    27199.0249    0.523354D-09    0.578886D+02
    27199.3584    0.535080D-09    0.579933D+02
    27199.6920    0.546406D-09    0.580992D+02
    27200.0256    0.558691D-09    0.582062D+02
    27200.3591    0.570367D-09    0.583144D+02
    27200.6927    0.583590D-09    0.584238D+02
    27201.0263    0.596590D-09    0.585345D+02
    27201.3598    0.609174D-09    0.586463D+02
    27201.6934    0.622285D-09    0.587593D+02
    27202.0269    0.636127D-09    0.588736D+02
    27202.3605    0.650366D-09    0.589891D+02
    27202.6941    0.664938D-09    0.591058D+02
    27203.0276    0.679323D-09    0.592237D+02
    27203.3612    0.694698D-09    0.593429D+02
    27203.6948    0.710471D-09    0.594634D+02
    27204.0283    0.725692D-09    0.595850D+02
    27204.3619    0.741813D-09    0.597080D+02
    27204.6955    0.758579D-09    0.598322D+02
    27205.0290    0.774926D-09    0.599577D+02
    27205.3626    0.792432D-09    0.600845D+02
    27205.6962    0.810105D-09    0.602126D+02
    27206.0297    0.828646D-09    0.603419D+02
    27206.3633    0.846798D-09    0.604726D+02
    27206.6968    0.865589D-09    0.606046D+02
    27207.0304    0.884504D-09    0.607378D+02
    27207.3640    0.905397D-09    0.608725D+02
    27207.6975    0.925160D-09    0.610084D+02
    27208.0311    0.945921D-09    0.611456D+02
    27208.3647    0.967027D-09    0.612842D+02
    27208.6982    0.988585D-09    0.614242D+02
    27209.0318    0.101102D-08    0.615655D+02
    27209.3654    0.103331D-08    0.617082D+02
    27209.6989    0.105642D-08    0.618522D+02
    27210.0325    0.108069D-08    0.619976D+02
    27210.3661    0.110489D-08    0.621444D+02
    27210.6996    0.113019D-08    0.622925D+02
    27211.0332    0.115500D-08    0.624421D+02
    27211.3667    0.118114D-08    0.625931D+02
    27211.7003    0.120791D-08    0.627454D+02
    27212.0339    0.123499D-08    0.628992D+02
    27212.3674    0.126175D-08    0.630544D+02
    27212.7010    0.129040D-08    0.632110D+02
    27213.0346    0.131931D-08    0.633691D+02
    27213.3681    0.134902D-08    0.635286D+02
    27213.7017    0.137901D-08    0.636896D+02
    27214.0353    0.141063D-08    0.638520D+02
    27214.3688    0.144282D-08    0.640159D+02
    27214.7024    0.147537D-08    0.641812D+02
    27215.0359    0.150835D-08    0.643480D+02
    27215.3695    0.154230D-08    0.645163D+02
    27215.7031    0.157745D-08    0.646861D+02
    27216.0366    0.161292D-08    0.648574D+02
    27216.3702    0.164942D-08    0.650302D+02
    27216.7038    0.168677D-08    0.652045D+02
    27217.0373    0.172463D-08    0.653804D+02
    27217.3709    0.176385D-08    0.655577D+02
    27217.7045    0.180293D-08    0.657366D+02
    27218.0380    0.184399D-08    0.659170D+02
    27218.3716    0.188566D-08    0.660990D+02
    27218.7052    0.192828D-08    0.662825D+02
    27219.0387    0.197174D-08    0.664676D+02
    27219.3723    0.201646D-08    0.666543D+02
    27219.7058    0.206200D-08    0.668425D+02
    27220.0394    0.210830D-08    0.670324D+02
    27220.3730    0.215605D-08    0.672238D+02
    27220.7065    0.220463D-08    0.674168D+02
    27221.0401    0.225436D-08    0.676114D+02
    27221.3737    0.230565D-08    0.678077D+02
    27221.7072    0.235719D-08    0.680055D+02
    27222.0408    0.241107D-08    0.682050D+02
    27222.3744    0.246512D-08    0.684061D+02
    27222.7079    0.252131D-08    0.686089D+02
    27223.0415    0.257740D-08    0.688133D+02
    27223.3750    0.263590D-08    0.690194D+02
    27223.7086    0.269545D-08    0.692272D+02
    27224.0422    0.275588D-08    0.694366D+02
    27224.3757    0.281845D-08    0.696477D+02
    27224.7093    0.288200D-08    0.698605D+02
    27225.0429    0.294709D-08    0.700750D+02
    27225.3764    0.301317D-08    0.702912D+02
    27225.7100    0.308104D-08    0.705091D+02
    27226.0436    0.315085D-08    0.707287D+02
    27226.3771    0.322176D-08    0.709501D+02
    27226.7107    0.329455D-08    0.711732D+02
    27227.0443    0.336854D-08    0.713980D+02
    27227.3778    0.344472D-08    0.716246D+02
    27227.7114    0.352229D-08    0.718529D+02
    27228.0449    0.360180D-08    0.720830D+02
    27228.3785    0.368206D-08    0.723149D+02
    27228.7121    0.376474D-08    0.725486D+02
    27229.0456    0.384984D-08    0.727841D+02
    27229.3792    0.393620D-08    0.730213D+02
    27229.7128    0.402472D-08    0.732604D+02
    27230.0463    0.411496D-08    0.735013D+02
    27230.3799    0.420798D-08    0.737440D+02
    27230.7135    0.430238D-08    0.739886D+02
    27231.0470    0.439870D-08    0.742349D+02
    27231.3806    0.449824D-08    0.744832D+02
    27231.7142    0.459859D-08    0.747332D+02
    27232.0477    0.470199D-08    0.749852D+02
    27232.3813    0.480714D-08    0.752390D+02
    27232.7148    0.491552D-08    0.754947D+02
    27233.0484    0.502595D-08    0.757523D+02
    27233.3820    0.513901D-08    0.760118D+02
    27233.7155    0.525347D-08    0.762732D+02
    27234.0491    0.537060D-08    0.765365D+02
    27234.3827    0.549085D-08    0.768017D+02
    27234.7162    0.561400D-08    0.770688D+02
    27235.0498    0.573960D-08    0.773379D+02
    27235.3834    0.586790D-08    0.776089D+02
    27235.7169    0.599959D-08    0.778819D+02
    27236.0505    0.613332D-08    0.781569D+02
    27236.3840    0.627020D-08    0.784338D+02
    27236.7176    0.641134D-08    0.787127D+02
    27237.0512    0.655459D-08    0.789936D+02
    27237.3847    0.670176D-08    0.792765D+02
    27237.7183    0.685039D-08    0.795614D+02
    27238.0519    0.700434D-08    0.798483D+02
    27238.3854    0.716008D-08    0.801372D+02
    27238.7190    0.732045D-08    0.804281D+02
    27239.0526    0.748244D-08    0.807211D+02
    27239.3861    0.764959D-08    0.810162D+02
    27239.7197    0.781994D-08    0.813133D+02
    27240.0533    0.799361D-08    0.816124D+02
    27240.3868    0.817263D-08    0.819136D+02
    27240.7204    0.835475D-08    0.822170D+02
    27241.0539    0.854037D-08    0.825224D+02
    27241.3875    0.873076D-08    0.828299D+02
    27241.7211    0.892455D-08    0.831395D+02
    27242.0546    0.912367D-08    0.834512D+02
    27242.3882    0.932639D-08    0.837651D+02
    27242.7218    0.953338D-08    0.840811D+02
    27243.0553    0.974491D-08    0.843992D+02
    27243.3889    0.996183D-08    0.847195D+02
    27243.7225    0.101830D-07    0.850419D+02
    27244.0560    0.104088D-07    0.853665D+02
    27244.3896    0.106401D-07    0.856933D+02
    27244.7232    0.108757D-07    0.860223D+02
    27245.0567    0.111166D-07    0.863535D+02
    27245.3903    0.113634D-07    0.866869D+02
    27245.7238    0.116147D-07    0.870225D+02
    27246.0574    0.118723D-07    0.873603D+02
    27246.3910    0.121347D-07    0.877003D+02
    27246.7245    0.124034D-07    0.880426D+02
    27247.0581    0.126777D-07    0.883872D+02
    27247.3917    0.129580D-07    0.887340D+02
    27247.7252    0.132446D-07    0.890830D+02
    27248.0588    0.135378D-07    0.894344D+02
    27248.3924    0.138363D-07    0.897880D+02
    27248.7259    0.141421D-07    0.901439D+02
    27249.0595    0.144542D-07    0.905022D+02
    27249.3930    0.147733D-07    0.908627D+02
    27249.7266    0.150978D-07    0.912256D+02
    27250.0602    0.154312D-07    0.915908D+02
    27250.3937    0.157713D-07    0.919583D+02
    27250.7273    0.161189D-07    0.923282D+02
    27251.0609    0.164732D-07    0.927005D+02
    27251.3944    0.168363D-07    0.930751D+02
    27251.7280    0.172070D-07    0.934521D+02
    27252.0616    0.175861D-07    0.938315D+02
    27252.3951    0.179715D-07    0.942133D+02
    27252.7287    0.183674D-07    0.945975D+02
    27253.0623    0.187710D-07    0.949841D+02
    27253.3958    0.191832D-07    0.953731D+02
    27253.7294    0.196039D-07    0.957646D+02
    27254.0629    0.200347D-07    0.961585D+02
    27254.3965    0.204739D-07    0.965549D+02
    27254.7301    0.209233D-07    0.969537D+02
    27255.0636    0.213799D-07    0.973550D+02
    27255.3972    0.218489D-07    0.977588D+02
    27255.7308    0.223277D-07    0.981651D+02
    27256.0643    0.228168D-07    0.985738D+02
    27256.3979    0.233160D-07    0.989851D+02
    27256.7315    0.238261D-07    0.993989D+02
    27257.0650    0.243477D-07    0.998152D+02
    27257.3986    0.248795D-07    0.100234D+03
    27257.7322    0.254232D-07    0.100656D+03
    27258.0657    0.259790D-07    0.101080D+03
    27258.3993    0.265462D-07    0.101506D+03
    27258.7328    0.271255D-07    0.101935D+03
    27259.0664    0.277170D-07    0.102367D+03
    27259.4000    0.283221D-07    0.102801D+03
    27259.7335    0.289398D-07    0.103238D+03
    27260.0671    0.295703D-07    0.103678D+03
    27260.4007    0.302143D-07    0.104120D+03
    27260.7342    0.308722D-07    0.104565D+03
    27261.0678    0.315444D-07    0.105012D+03
    27261.4014    0.322308D-07    0.105462D+03
    27261.7349    0.329317D-07    0.105915D+03
    27262.0685    0.336478D-07    0.106370D+03
    27262.4020    0.343793D-07    0.106828D+03
    27262.7356    0.351262D-07    0.107289D+03
    27263.0692    0.358887D-07    0.107753D+03
    27263.4027    0.366681D-07    0.108219D+03
    27263.7363    0.374637D-07    0.108688D+03
    27264.0699    0.382764D-07    0.109159D+03
    27264.4034    0.391060D-07    0.109634D+03
    27264.7370    0.399543D-07    0.110111D+03
    27265.0706    0.408198D-07    0.110591D+03
    27265.4041    0.417036D-07    0.111074D+03
    27265.7377    0.426060D-07    0.111559D+03
    27266.0713    0.435282D-07    0.112047D+03
    27266.4048    0.444696D-07    0.112538D+03
    27266.7384    0.454315D-07    0.113032D+03
    27267.0719    0.464128D-07    0.113529D+03
    27267.4055    0.474159D-07    0.114029D+03
    27267.7391    0.484400D-07    0.114531D+03
    27268.0726    0.494858D-07    0.115036D+03
    27268.4062    0.505535D-07    0.115544D+03
    27268.7398    0.516444D-07    0.116055D+03
    27269.0733    0.527572D-07    0.116569D+03
    27269.4069    0.538945D-07    0.117086D+03
    27269.7405    0.550563D-07    0.117605D+03
    27270.0740    0.562418D-07    0.118128D+03
    27270.4076    0.574525D-07    0.118653D+03
    27270.7412    0.586884D-07    0.119182D+03
    27271.0747    0.599504D-07    0.119713D+03
    27271.4083    0.612400D-07    0.120247D+03
    27271.7418    0.625556D-07    0.120785D+03
    27272.0754    0.638995D-07    0.121325D+03
    27272.4090    0.652718D-07    0.121868D+03
    27272.7425    0.666731D-07    0.122414D+03
    27273.0761    0.681041D-07    0.122963D+03
    27273.4097    0.695648D-07    0.123516D+03
    27273.7432    0.710561D-07    0.124071D+03
    27274.0768    0.725788D-07    0.124629D+03
    27274.4104    0.741337D-07    0.125190D+03
    27274.7439    0.757212D-07    0.125755D+03
    27275.0775    0.773417D-07    0.126322D+03
    27275.4110    0.789973D-07    0.126892D+03
    27275.7446    0.806869D-07    0.127466D+03
    27276.0782    0.824116D-07    0.128043D+03
    27276.4117    0.841713D-07    0.128622D+03
    27276.7453    0.859701D-07    0.129205D+03
    27277.0789    0.878060D-07    0.129791D+03
    27277.4124    0.896800D-07    0.130380D+03
    27277.7460    0.915937D-07    0.130973D+03
    27278.0796    0.935474D-07    0.131568D+03
    27278.4131    0.955415D-07    0.132167D+03
    27278.7467    0.975775D-07    0.132768D+03
    27279.0803    0.996559D-07    0.133373D+03
    27279.4138    0.101778D-06    0.133981D+03
    27279.7474    0.103944D-06    0.134593D+03
    27280.0809    0.106155D-06    0.135207D+03
    27280.4145    0.108413D-06    0.135825D+03
    27280.7481    0.110718D-06    0.136446D+03
    27281.0816    0.113071D-06    0.137070D+03
    27281.4152    0.115472D-06    0.137698D+03
    27281.7488    0.117924D-06    0.138328D+03
    27282.0823    0.120426D-06    0.138962D+03
    27282.4159    0.122982D-06    0.139600D+03
    27282.7495    0.125589D-06    0.140240D+03
    27283.0830    0.128251D-06    0.140884D+03
    27283.4166    0.130969D-06    0.141531D+03
    27283.7502    0.133743D-06    0.142182D+03
    27284.0837    0.136574D-06    0.142836D+03
    27284.4173    0.139464D-06    0.143493D+03
    27284.7508    0.142415D-06    0.144153D+03
    27285.0844    0.145426D-06    0.144817D+03
    27285.4180    0.148500D-06    0.145485D+03
    27285.7515    0.151637D-06    0.146155D+03
    27286.0851    0.154840D-06    0.146829D+03
    27286.4187    0.158109D-06    0.147507D+03
    27286.7522    0.161445D-06    0.148188D+03
    27287.0858    0.164850D-06    0.148872D+03
    27287.4194    0.168326D-06    0.149560D+03
    27287.7529    0.171873D-06    0.150251D+03
    27288.0865    0.175495D-06    0.150945D+03
    27288.4200    0.179190D-06    0.151644D+03
    27288.7536    0.182961D-06    0.152345D+03
    27289.0872    0.186812D-06    0.153050D+03
    27289.4207    0.190741D-06    0.153759D+03
    27289.7543    0.194750D-06    0.154471D+03
    27290.0879    0.198844D-06    0.155186D+03
    27290.4214    0.203020D-06    0.155905D+03
    27290.7550    0.207283D-06    0.156628D+03
    27291.0886    0.211633D-06    0.157354D+03
    27291.4221    0.216074D-06    0.158084D+03
    27291.7557    0.220606D-06    0.158817D+03
    27292.0893    0.225230D-06    0.159554D+03
    27292.4228    0.229949D-06    0.160295D+03
    27292.7564    0.234766D-06    0.161039D+03
    27293.0899    0.239681D-06    0.161786D+03
    27293.4235    0.244697D-06    0.162537D+03
    27293.7571    0.249816D-06    0.163292D+03
    27294.0906    0.255039D-06    0.164051D+03
    27294.4242    0.260371D-06    0.164813D+03
    27294.7578    0.265811D-06    0.165579D+03
    27295.0913    0.271362D-06    0.166348D+03
    27295.4249    0.277027D-06    0.167121D+03
    27295.7585    0.282808D-06    0.167898D+03
    27296.0920    0.288707D-06    0.168679D+03
    27296.4256    0.294727D-06    0.169463D+03
    27296.7592    0.300869D-06    0.170251D+03
    27297.0927    0.307137D-06    0.171042D+03
    27297.4263    0.313533D-06    0.171838D+03
    27297.7598    0.320058D-06    0.172637D+03
    27298.0934    0.326718D-06    0.173440D+03
    27298.4270    0.333513D-06    0.174246D+03
    27298.7605    0.340447D-06    0.175057D+03
    27299.0941    0.347521D-06    0.175871D+03
    27299.4277    0.354740D-06    0.176689D+03
    27299.7612    0.362106D-06    0.177510D+03
    27300.0948    0.369621D-06    0.178336D+03
    27300.4284    0.377289D-06    0.179165D+03
    27300.7619    0.385113D-06    0.179998D+03
    27301.0955    0.393096D-06    0.180835D+03
    27301.4290    0.401242D-06    0.181676D+03
    27301.7626    0.409552D-06    0.182521D+03
    27302.0962    0.418030D-06    0.183369D+03
    27302.4297    0.426682D-06    0.184222D+03
    27302.7633    0.435508D-06    0.185078D+03
    27303.0969    0.444512D-06    0.185938D+03
    27303.4304    0.453700D-06    0.186802D+03
    27303.7640    0.463072D-06    0.187670D+03
    27304.0976    0.472635D-06    0.188542D+03
    27304.4311    0.482392D-06    0.189418D+03
    27304.7647    0.492345D-06    0.190298D+03
    27305.0983    0.502500D-06    0.191182D+03
    27305.4318    0.512859D-06    0.192069D+03
    27305.7654    0.523428D-06    0.192961D+03
    27306.0989    0.534210D-06    0.193857D+03
    27306.4325    0.545210D-06    0.194756D+03
    27306.7661    0.556431D-06    0.195660D+03
    27307.0996    0.567877D-06    0.196567D+03
    27307.4332    0.579556D-06    0.197479D+03
    27307.7668    0.591469D-06    0.198395D+03
    27308.1003    0.603622D-06    0.199314D+03
    27308.4339    0.616019D-06    0.200238D+03
    27308.7675    0.628666D-06    0.201166D+03
    27309.1010    0.641567D-06    0.202097D+03
    27309.4346    0.654727D-06    0.203033D+03
    27309.7682    0.668151D-06    0.203973D+03
    27310.1017    0.681845D-06    0.204917D+03
    27310.4353    0.695814D-06    0.205865D+03
    27310.7688    0.710062D-06    0.206817D+03
    27311.1024    0.724596D-06    0.207773D+03
    27311.4360    0.739422D-06    0.208734D+03
    27311.7695    0.754543D-06    0.209698D+03
    27312.1031    0.769969D-06    0.210667D+03
    27312.4367    0.785703D-06    0.211639D+03
    27312.7702    0.801751D-06    0.212616D+03
    27313.1038    0.818121D-06    0.213597D+03
    27313.4374    0.834818D-06    0.214583D+03
    27313.7709    0.851847D-06    0.215572D+03
    27314.1045    0.869218D-06    0.216565D+03
    27314.4380    0.886935D-06    0.217563D+03
    27314.7716    0.905005D-06    0.218565D+03
    27315.1052    0.923435D-06    0.219571D+03
    27315.4387    0.942233D-06    0.220582D+03
    27315.7723    0.961406D-06    0.221596D+03
    27316.1059    0.980960D-06    0.222615D+03
    27316.4394    0.100090D-05    0.223638D+03
[...]
    35993.1087    0.771230D+00    0.806590D+00
    35993.4422    0.770851D+00    0.806147D+00
    35993.7758    0.770469D+00    0.805703D+00
    35994.1094    0.770086D+00    0.805258D+00
    35994.4429    0.769701D+00    0.804811D+00
    35994.7765    0.769314D+00    0.804363D+00
    35995.1101    0.768925D+00    0.803914D+00
    35995.4436    0.768535D+00    0.803463D+00
    35995.7772    0.768143D+00    0.803011D+00
    35996.1108    0.767749D+00    0.802558D+00
    35996.4443    0.767354D+00    0.802103D+00
    35996.7779    0.766957D+00    0.801647D+00
    35997.1114    0.766558D+00    0.801190D+00
    35997.4450    0.766157D+00    0.800731D+00
    35997.7786    0.765755D+00    0.800272D+00
    35998.1121    0.765351D+00    0.799810D+00
    35998.4457    0.764946D+00    0.799348D+00
    35998.7793    0.764539D+00    0.798884D+00
    35999.1128    0.764130D+00    0.798419D+00
    35999.4464    0.763719D+00    0.797953D+00
    35999.7800    0.763307D+00    0.797485D+00
    36000.1135    0.762893D+00    0.797016D+00
    36000.4471    0.762477D+00    0.796546D+00
    36000.7807    0.762060D+00    0.796074D+00
    36001.1142    0.761641D+00    0.795602D+00
    36001.4478    0.761221D+00    0.795128D+00
    36001.7813    0.760799D+00    0.794652D+00
    36002.1149    0.760375D+00    0.794176D+00
    36002.4485    0.759950D+00    0.793698D+00
    36002.7820    0.759523D+00    0.793219D+00
    36003.1156    0.759094D+00    0.792739D+00
    36003.4492    0.758664D+00    0.792257D+00
    36003.7827    0.758232D+00    0.791774D+00
    36004.1163    0.757798D+00    0.791291D+00
    36004.4499    0.757363D+00    0.790805D+00
    36004.7834    0.756927D+00    0.790319D+00
    36005.1170    0.756489D+00    0.789831D+00
    36005.4505    0.756049D+00    0.789342D+00
    36005.7841    0.755607D+00    0.788852D+00
    36006.1177    0.755164D+00    0.788361D+00
    36006.4512    0.754720D+00    0.787869D+00
    36006.7848    0.754274D+00    0.787375D+00
    36007.1184    0.753826D+00    0.786880D+00
    36007.4519    0.753377D+00    0.786384D+00
    36007.7855    0.752926D+00    0.785887D+00
    36008.1191    0.752474D+00    0.785389D+00
    36008.4526    0.752020D+00    0.784889D+00
    36008.7862    0.751565D+00    0.784389D+00
    36009.1198    0.751108D+00    0.783887D+00
    36009.4533    0.750649D+00    0.783384D+00
    36009.7869    0.750189D+00    0.782879D+00
    36010.1204    0.749728D+00    0.782374D+00
    36010.4540    0.749265D+00    0.781868D+00
    36010.7876    0.748800D+00    0.781360D+00
    36011.1211    0.748334D+00    0.780851D+00
    36011.4547    0.747867D+00    0.780341D+00
    36011.7883    0.747398D+00    0.779830D+00
    36012.1218    0.746927D+00    0.779318D+00
    36012.4554    0.746455D+00    0.778805D+00
    36012.7890    0.745982D+00    0.778291D+00
    36013.1225    0.745507D+00    0.777775D+00
    36013.4561    0.745031D+00    0.777259D+00
    36013.7897    0.744553D+00    0.776741D+00
    36014.1232    0.744074D+00    0.776222D+00
    36014.4568    0.743593D+00    0.775702D+00
    36014.7903    0.743111D+00    0.775181D+00
    36015.1239    0.742627D+00    0.774659D+00
    36015.4575    0.742142D+00    0.774136D+00
    36015.7910    0.741656D+00    0.773612D+00
    36016.1246    0.741168D+00    0.773087D+00
    36016.4582    0.740679D+00    0.772560D+00
    36016.7917    0.740188D+00    0.772033D+00
    36017.1253    0.739696D+00    0.771505D+00
    36017.4589    0.739202D+00    0.770975D+00
    36017.7924    0.738708D+00    0.770445D+00
    36018.1260    0.738211D+00    0.769913D+00
    36018.4595    0.737714D+00    0.769381D+00
    36018.7931    0.737215D+00    0.768847D+00
    36019.1267    0.736714D+00    0.768312D+00
    36019.4602    0.736212D+00    0.767777D+00
    36019.7938    0.735709D+00    0.767240D+00
    36020.1274    0.735205D+00    0.766702D+00
    36020.4609    0.734699D+00    0.766164D+00
    36020.7945    0.734192D+00    0.765624D+00
    36021.1281    0.733683D+00    0.765083D+00
    36021.4616    0.733173D+00    0.764541D+00
    36021.7952    0.732662D+00    0.763999D+00
    36022.1288    0.732149D+00    0.763455D+00
    36022.4623    0.731636D+00    0.762911D+00
    36022.7959    0.731120D+00    0.762365D+00
    36023.1294    0.730604D+00    0.761818D+00
    36023.4630    0.730086D+00    0.761271D+00
    36023.7966    0.729567D+00    0.760722D+00
    36024.1301    0.729047D+00    0.760173D+00
    36024.4637    0.728525D+00    0.759622D+00
    36024.7973    0.728002D+00    0.759071D+00
    36025.1308    0.727478D+00    0.758519D+00
    36025.4644    0.726952D+00    0.757966D+00
    36025.7980    0.726425D+00    0.757412D+00
    36026.1315    0.725897D+00    0.756856D+00
    36026.4651    0.725368D+00    0.756300D+00
    36026.7987    0.724838D+00    0.755744D+00
    36027.1322    0.724306D+00    0.755186D+00
    36027.4658    0.723773D+00    0.754627D+00
    36027.7993    0.723239D+00    0.754067D+00
    36028.1329    0.722703D+00    0.753507D+00
    36028.4665    0.722166D+00    0.752945D+00
    36028.8000    0.721628D+00    0.752383D+00
    36029.1336    0.721089D+00    0.751820D+00
    36029.4672    0.720549D+00    0.751256D+00
    36029.8007    0.720008D+00    0.750691D+00
    36030.1343    0.719465D+00    0.750125D+00
    36030.4679    0.718921D+00    0.749559D+00
    36030.8014    0.718376D+00    0.748991D+00
    36031.1350    0.717830D+00    0.748423D+00
    36031.4685    0.717282D+00    0.747854D+00
    36031.8021    0.716734D+00    0.747284D+00
    36032.1357    0.716184D+00    0.746713D+00
    36032.4692    0.715633D+00    0.746141D+00
    36032.8028    0.715081D+00    0.745569D+00
    36033.1364    0.714528D+00    0.744995D+00
    36033.4699    0.713973D+00    0.744421D+00
    36033.8035    0.713418D+00    0.743846D+00
    36034.1371    0.712861D+00    0.743270D+00
    36034.4706    0.712304D+00    0.742694D+00
    36034.8042    0.711745D+00    0.742116D+00
    36035.1378    0.711185D+00    0.741538D+00
    36035.4713    0.710624D+00    0.740959D+00
    36035.8049    0.710062D+00    0.740379D+00
    36036.1384    0.709499D+00    0.739799D+00
    36036.4720    0.708934D+00    0.739218D+00
    36036.8056    0.708369D+00    0.738636D+00
    36037.1391    0.707802D+00    0.738053D+00
    36037.4727    0.707235D+00    0.737469D+00
    36037.8063    0.706666D+00    0.736885D+00
    36038.1398    0.706097D+00    0.736300D+00
    36038.4734    0.705526D+00    0.735714D+00
    36038.8070    0.704954D+00    0.735127D+00
    36039.1405    0.704382D+00    0.734540D+00
    36039.4741    0.703808D+00    0.733952D+00
    36039.8077    0.703233D+00    0.733363D+00
    36040.1412    0.702657D+00    0.732774D+00
    36040.4748    0.702080D+00    0.732184D+00
    36040.8083    0.701502D+00    0.731593D+00
    36041.1419    0.700924D+00    0.731001D+00
    36041.4755    0.700344D+00    0.730409D+00
    36041.8090    0.699763D+00    0.729816D+00
    36042.1426    0.699181D+00    0.729222D+00
    36042.4762    0.698598D+00    0.728628D+00
    36042.8097    0.698014D+00    0.728033D+00
    36043.1433    0.697430D+00    0.727437D+00
    36043.4769    0.696844D+00    0.726841D+00
    36043.8104    0.696257D+00    0.726244D+00
    36044.1440    0.695670D+00    0.725646D+00
    36044.4775    0.695081D+00    0.725048D+00
    36044.8111    0.694491D+00    0.724449D+00
    36045.1447    0.693901D+00    0.723850D+00
    36045.4782    0.693310D+00    0.723249D+00
    36045.8118    0.692717D+00    0.722649D+00
    36046.1454    0.692124D+00    0.722047D+00
    36046.4789    0.691530D+00    0.721445D+00
    36046.8125    0.690935D+00    0.720842D+00
    36047.1461    0.690339D+00    0.720239D+00
    36047.4796    0.689742D+00    0.719635D+00
    36047.8132    0.689144D+00    0.719030D+00
    36048.1468    0.688546D+00    0.718425D+00
    36048.4803    0.687946D+00    0.717820D+00
    36048.8139    0.687346D+00    0.717213D+00
    36049.1474    0.686745D+00    0.716606D+00
    36049.4810    0.686143D+00    0.715999D+00
    36049.8146    0.685540D+00    0.715391D+00
    36050.1481    0.684936D+00    0.714782D+00
    36050.4817    0.684331D+00    0.714173D+00
    36050.8153    0.683726D+00    0.713563D+00
    36051.1488    0.683120D+00    0.712953D+00
    36051.4824    0.682512D+00    0.712342D+00
    36051.8160    0.681905D+00    0.711731D+00
    36052.1495    0.681296D+00    0.711119D+00
    36052.4831    0.680686D+00    0.710507D+00
    36052.8166    0.680076D+00    0.709894D+00
    36053.1502    0.679465D+00    0.709280D+00
    36053.4838    0.678853D+00    0.708666D+00
    36053.8173    0.678240D+00    0.708052D+00
    36054.1509    0.677627D+00    0.707437D+00
    36054.4845    0.677013D+00    0.706821D+00
    36054.8180    0.676398D+00    0.706205D+00
    36055.1516    0.675782D+00    0.705589D+00
    36055.4852    0.675165D+00    0.704972D+00
    36055.8187    0.674548D+00    0.704355D+00
    36056.1523    0.673930D+00    0.703737D+00
    36056.4859    0.673311D+00    0.703118D+00
    36056.8194    0.672692D+00    0.702500D+00
    36057.1530    0.672072D+00    0.701880D+00
    36057.4865    0.671451D+00    0.701260D+00
    36057.8201    0.670829D+00    0.700640D+00
    36058.1537    0.670207D+00    0.700020D+00
    36058.4872    0.669584D+00    0.699399D+00
    36058.8208    0.668960D+00    0.698777D+00
    36059.1544    0.668336D+00    0.698155D+00
    36059.4879    0.667710D+00    0.697533D+00
    36059.8215    0.667085D+00    0.696910D+00
    36060.1551    0.666458D+00    0.696287D+00
    36060.4886    0.665831D+00    0.695663D+00
    36060.8222    0.665203D+00    0.695039D+00
    36061.1558    0.664575D+00    0.694415D+00
    36061.4893    0.663946D+00    0.693790D+00
    36061.8229    0.663316D+00    0.693165D+00
    36062.1564    0.662686D+00    0.692539D+00
    36062.4900    0.662055D+00    0.691913D+00
    36062.8236    0.661423D+00    0.691287D+00
    36063.1571    0.660791D+00    0.690660D+00
    36063.4907    0.660158D+00    0.690033D+00
    36063.8243    0.659525D+00    0.689406D+00
    36064.1578    0.658891D+00    0.688778D+00
    36064.4914    0.658256D+00    0.688150D+00
    36064.8250    0.657621D+00    0.687522D+00
    36065.1585    0.656985D+00    0.686893D+00
    36065.4921    0.656349D+00    0.686264D+00
    36065.8256    0.655712D+00    0.685634D+00
    36066.1592    0.655074D+00    0.685005D+00
    36066.4928    0.654436D+00    0.684375D+00
    36066.8263    0.653798D+00    0.683744D+00
    36067.1599    0.653158D+00    0.683114D+00
    36067.4935    0.652519D+00    0.682483D+00
    36067.8270    0.651878D+00    0.681851D+00
    36068.1606    0.651238D+00    0.681220D+00
    36068.4942    0.650596D+00    0.680588D+00
    36068.8277    0.649954D+00    0.679956D+00
    36069.1613    0.649312D+00    0.679323D+00
    36069.4949    0.648669D+00    0.678691D+00
    36069.8284    0.648026D+00    0.678058D+00
    36070.1620    0.647382D+00    0.677424D+00
    36070.4955    0.646738D+00    0.676791D+00
    36070.8291    0.646093D+00    0.676157D+00
    36071.1627    0.645448D+00    0.675523D+00
    36071.4962    0.644802D+00    0.674889D+00
    36071.8298    0.644156D+00    0.674255D+00
    36072.1634    0.643509D+00    0.673620D+00
    36072.4969    0.642862D+00    0.672985D+00
    36072.8305    0.642214D+00    0.672350D+00
    36073.1641    0.641566D+00    0.671715D+00
    36073.4976    0.640918D+00    0.671079D+00
    36073.8312    0.640269D+00    0.670443D+00
    36074.1648    0.639619D+00    0.669807D+00
    36074.4983    0.638970D+00    0.669171D+00
    36074.8319    0.638319D+00    0.668535D+00
    36075.1654    0.637669D+00    0.667898D+00
    36075.4990    0.637018D+00    0.667262D+00
    36075.8326    0.636366D+00    0.666625D+00
    36076.1661    0.635715D+00    0.665988D+00
    36076.4997    0.635062D+00    0.665350D+00
    36076.8333    0.634410D+00    0.664713D+00
    36077.1668    0.633757D+00    0.664075D+00
    36077.5004    0.633104D+00    0.663438D+00
    36077.8340    0.632450D+00    0.662800D+00
    36078.1675    0.631796D+00    0.662162D+00
    36078.5011    0.631142D+00    0.661524D+00
    36078.8346    0.630487D+00    0.660886D+00
    36079.1682    0.629832D+00    0.660247D+00
    36079.5018    0.629176D+00    0.659609D+00
    36079.8353    0.628521D+00    0.658970D+00
    36080.1689    0.627865D+00    0.658331D+00
    36080.5025    0.627208D+00    0.657693D+00
    36080.8360    0.626552D+00    0.657054D+00
    36081.1696    0.625895D+00    0.656415D+00
    36081.5032    0.625237D+00    0.655775D+00
    36081.8367    0.624580D+00    0.655136D+00
    36082.1703    0.623922D+00    0.654497D+00
    36082.5039    0.623264D+00    0.653858D+00
    36082.8374    0.622605D+00    0.653218D+00
    36083.1710    0.621947D+00    0.652579D+00
    36083.5045    0.621288D+00    0.651939D+00
    36083.8381    0.620629D+00    0.651299D+00
    36084.1717    0.619969D+00    0.650660D+00
    36084.5052    0.619309D+00    0.650020D+00
    36084.8388    0.618649D+00    0.649380D+00
    36085.1724    0.617989D+00    0.648740D+00
    36085.5059    0.617329D+00    0.648101D+00
    36085.8395    0.616668D+00    0.647461D+00
    36086.1731    0.616007D+00    0.646821D+00
    36086.5066    0.615346D+00    0.646181D+00
    36086.8402    0.614685D+00    0.645541D+00
    36087.1738    0.614023D+00    0.644901D+00
    36087.5073    0.613362D+00    0.644261D+00
    36087.8409    0.612700D+00    0.643621D+00
    36088.1744    0.612038D+00    0.642981D+00
    36088.5080    0.611375D+00    0.642342D+00
    36088.8416    0.610713D+00    0.641702D+00
    36089.1751    0.610050D+00    0.641062D+00
    36089.5087    0.609387D+00    0.640422D+00
    36089.8423    0.608725D+00    0.639782D+00
    36090.1758    0.608061D+00    0.639142D+00
    36090.5094    0.607398D+00    0.638503D+00
    36090.8430    0.606735D+00    0.637863D+00
    36091.1765    0.606071D+00    0.637223D+00
    36091.5101    0.605408D+00    0.636584D+00
    36091.8436    0.604744D+00    0.635944D+00
    36092.1772    0.604080D+00    0.635305D+00
    36092.5108    0.603416D+00    0.634665D+00
    36092.8443    0.602752D+00    0.634026D+00
    36093.1779    0.602088D+00    0.633387D+00
    36093.5115    0.601423D+00    0.632748D+00
    36093.8450    0.600759D+00    0.632108D+00
    36094.1786    0.600094D+00    0.631470D+00
    36094.5122    0.599430D+00    0.630831D+00
    36094.8457    0.598765D+00    0.630192D+00
    36095.1793    0.598100D+00    0.629553D+00
    36095.5129    0.597436D+00    0.628915D+00
    36095.8464    0.596771D+00    0.628276D+00
    36096.1800    0.596106D+00    0.627638D+00
    36096.5135    0.595441D+00    0.627000D+00
    36096.8471    0.594776D+00    0.626362D+00
    36097.1807    0.594111D+00    0.625724D+00
    36097.5142    0.593446D+00    0.625086D+00
    36097.8478    0.592781D+00    0.624448D+00
    36098.1814    0.592115D+00    0.623811D+00
    36098.5149    0.591450D+00    0.623174D+00
    36098.8485    0.590785D+00    0.622536D+00
    36099.1821    0.590120D+00    0.621899D+00
    36099.5156    0.589455D+00    0.621263D+00
    36099.8492    0.588790D+00    0.620626D+00
    36100.1828    0.588125D+00    0.619989D+00
    36100.5163    0.587460D+00    0.619353D+00
    36100.8499    0.586794D+00    0.618717D+00
    36101.1834    0.586129D+00    0.618081D+00
    36101.5170    0.585464D+00    0.617445D+00
    36101.8506    0.584799D+00    0.616810D+00
    36102.1841    0.584134D+00    0.616175D+00
    36102.5177    0.583470D+00    0.615539D+00
    36102.8513    0.582805D+00    0.614905D+00
    36103.1848    0.582140D+00    0.614270D+00
    36103.5184    0.581475D+00    0.613635D+00
    36103.8520    0.580811D+00    0.613001D+00
    36104.1855    0.580146D+00    0.612367D+00
    36104.5191    0.579482D+00    0.611734D+00
    36104.8526    0.578817D+00    0.611100D+00
    36105.1862    0.578153D+00    0.610467D+00
    36105.5198    0.577489D+00    0.609834D+00
    36105.8533    0.576825D+00    0.609201D+00
    36106.1869    0.576161D+00    0.608569D+00
    36106.5205    0.575497D+00    0.607936D+00
    36106.8540    0.574833D+00    0.607305D+00
    36107.1876    0.574169D+00    0.606673D+00
    36107.5212    0.573506D+00    0.606041D+00
    36107.8547    0.572842D+00    0.605410D+00
    36108.1883    0.572179D+00    0.604780D+00
    36108.5219    0.571516D+00    0.604149D+00
 ---------------------------------------------


 ----------------------------------------------------------------------

 Electric dipole moment (input orientation):
 (Debye = 10**-18 statcoulomb cm , SI units = C m)
                  (au)            (Debye)         (10**-30 SI)
   Tot        0.192646D+01      0.489657D+01      0.163332D+02
   x         -0.192646D+01     -0.489657D+01     -0.163332D+02
   y          0.000000D+00      0.000000D+00      0.000000D+00
   z          0.000000D+00      0.000000D+00      0.000000D+00

 Dipole polarizability, Alpha (input orientation).
 (esu units = cm**3 , SI units = C**2 m**2 J**-1)
 Alpha(0;0):
               (au)            (10**-24 esu)      (10**-40 SI)
   iso        0.866113D+02      0.128345D+02      0.142803D+02
   aniso      0.521859D+02      0.773316D+01      0.860430D+01
   xx         0.113867D+03      0.168733D+02      0.187741D+02
   yx         0.000000D+00      0.000000D+00      0.000000D+00
   yy         0.917090D+02      0.135899D+02      0.151208D+02
   zx         0.000000D+00      0.000000D+00      0.000000D+00
   zy         0.000000D+00      0.000000D+00      0.000000D+00
   zz         0.542581D+02      0.804023D+01      0.894596D+01

 ----------------------------------------------------------------------

 Dipole orientation:
     6          0.00000000          0.00000000         -2.02707142
     6          0.00000000          2.28483006         -0.54412774
     6          0.00000000          2.26319270          2.07480590
     6         -0.00000000         -0.00000000          3.44937379
     6         -0.00000000         -2.26319270          2.07480590
     6         -0.00000000         -2.28483006         -0.54412774
     8          0.00000000          0.00000000         -4.42855428
     1          0.00000000          4.06398831         -1.57725991
     1          0.00000000          4.05960415          3.08819043
     1         -0.00000000         -0.00000000          5.50450764
     1         -0.00000000         -4.05960415          3.08819043
     1         -0.00000000         -4.06398831         -1.57725991

 Electric dipole moment (dipole orientation):
 (Debye = 10**-18 statcoulomb cm , SI units = C m)
                  (au)            (Debye)         (10**-30 SI)
   Tot        0.192646D+01      0.489657D+01      0.163332D+02
   x          0.000000D+00      0.000000D+00      0.000000D+00
   y          0.000000D+00      0.000000D+00      0.000000D+00
   z          0.192646D+01      0.489657D+01      0.163332D+02

 Dipole polarizability, Alpha (dipole orientation).
 (esu units = cm**3 , SI units = C**2 m**2 J**-1)
 Alpha(0;0):
               (au)            (10**-24 esu)      (10**-40 SI)
   iso        0.866113D+02      0.128345D+02      0.142803D+02
   aniso      0.521859D+02      0.773316D+01      0.860430D+01
   xx         0.542581D+02      0.804023D+01      0.894596D+01
   yx         0.000000D+00      0.000000D+00      0.000000D+00
   yy         0.917090D+02      0.135899D+02      0.151208D+02
   zx         0.000000D+00      0.000000D+00      0.000000D+00
   zy         0.000000D+00      0.000000D+00      0.000000D+00
   zz         0.113867D+03      0.168733D+02      0.187741D+02

 ----------------------------------------------------------------------

 This type of calculation cannot be archived.


 KNOWLEDGE IS EXPERIMENT'S DAUGHTER.
 -- LEONARDO DA VINCI, IN "PENSIERI" CA. 1492
 Job cpu time:       0 days  0 hours  2 minutes 41.7 seconds.
 Elapsed time:       0 days  0 hours  0 minutes  5.2 seconds.
 File lengths (MBytes):  RWF=     17 Int=      0 D2E=      0 Chk=      4 Scr=      2
 Normal termination of Gaussian DV at Fri Jul 28 20:16:17 2023.
