 Set GAUSS_MDEF to "100GB".
 Set GAUSS_PDEF to "32".
 Entering Gaussian System, Link 0=gdv
 Initial command:
 /opt/unmanaged/gaussian/gdv-20170407-i10+/gdv/l1.exe "/scratch/cmyers7/6667/Gau-1434999.inp" -scrdir="/scratch/cmyers7/6667/"
 Default is to use a total of  32 processors:
                               32 via shared-memory
                                1 via Linda
 Entering Link 1 = /opt/unmanaged/gaussian/gdv-20170407-i10+/gdv/l1.exe PID=   1435000.
  
 Copyright (c) 1988-2017, Gaussian, Inc.  All Rights Reserved.
  
 This is the private, development version of
 the Gaussian(R) DV system of programs. It is based on
 the Gaussian(R) 16 system (copyright 2016, Gaussian, Inc.),
 the Gaussian(R) 09 system (copyright 2009, Gaussian, Inc.),
 the Gaussian(R) 03 system (copyright 2003, Gaussian, Inc.),
 the Gaussian(R) 98 system (copyright 1998, Gaussian, Inc.),
 the Gaussian(R) 94 system (copyright 1995, Gaussian, Inc.),
 the Gaussian 92(TM) system (copyright 1992, Gaussian, Inc.),
 the Gaussian 90(TM) system (copyright 1990, Gaussian, Inc.),
 the Gaussian 88(TM) system (copyright 1988, Gaussian, Inc.),
 the Gaussian 86(TM) system (copyright 1986, Carnegie Mellon
 University), and the Gaussian 82(TM) system (copyright 1983,
 Carnegie Mellon University). Gaussian is a federally registered
 trademark of Gaussian, Inc.
  
 This software contains proprietary and confidential information,
 including trade secrets, belonging to Gaussian, Inc.
  
 This software is provided under written license and may be
 used, copied, transmitted, or stored only in accord with that
 written license.
  
 The following legend is applicable only to US Government
 contracts under FAR:
  
                    RESTRICTED RIGHTS LEGEND
  
 Use, reproduction and disclosure by the US Government is
 subject to restrictions as set forth in subparagraphs (a)
 and (c) of the Commercial Computer Software - Restricted
 Rights clause in FAR 52.227-19.
  
 Gaussian, Inc.
 340 Quinnipiac St., Bldg. 40, Wallingford CT 06492
  
  
 ---------------------------------------------------------------
 Warning -- This program may not be used in any manner that
 competes with the business of Gaussian, Inc. or will provide
 assistance to any competitor of Gaussian, Inc.  The licensee
 of this program is prohibited from giving any competitor of
 Gaussian, Inc. access to this program.  By using this program,
 the user acknowledges that Gaussian, Inc. is engaged in the
 business of creating and licensing software in the field of
 computational chemistry and represents and warrants to the
 licensee that it is not a competitor of Gaussian, Inc. and that
 it will not use this program in any manner prohibited above.
 ---------------------------------------------------------------
  

 Cite this work as:
 Gaussian Development Version, Revision I.10+,
 M. J. Frisch, G. W. Trucks, H. B. Schlegel, G. E. Scuseria, 
 M. A. Robb, J. R. Cheeseman, G. Scalmani, V. Barone, 
 G. A. Petersson, H. Nakatsuji, X. Li, M. Caricato, A. V. Marenich, 
 J. Bloino, B. G. Janesko, R. Gomperts, B. Mennucci, H. P. Hratchian, 
 J. V. Ortiz, A. F. Izmaylov, J. L. Sonnenberg, D. Williams-Young, 
 F. Ding, F. Lipparini, F. Egidi, J. Goings, B. Peng, A. Petrone, 
 T. Henderson, D. Ranasinghe, V. G. Zakrzewski, J. Gao, N. Rega, 
 G. Zheng, W. Liang, M. Hada, M. Ehara, K. Toyota, R. Fukuda, 
 J. Hasegawa, M. Ishida, T. Nakajima, Y. Honda, O. Kitao, H. Nakai, 
 T. Vreven, K. Throssell, J. A. Montgomery, Jr., J. E. Peralta, 
 F. Ogliaro, M. J. Bearpark, J. J. Heyd, E. N. Brothers, K. N. Kudin, 
 V. N. Staroverov, T. A. Keith, R. Kobayashi, J. Normand, 
 K. Raghavachari, A. P. Rendell, J. C. Burant, S. S. Iyengar, 
 J. Tomasi, M. Cossi, J. M. Millam, M. Klene, C. Adamo, R. Cammi, 
 J. W. Ochterski, R. L. Martin, K. Morokuma, O. Farkas, 
 J. B. Foresman, and D. J. Fox, Gaussian, Inc., Wallingford CT, 2016.
 
 *******************************************
 Gaussian DV:  ES64L-GDVRevI.10+ 27-Mar-2017
                 26-Jul-2023 
 *******************************************
 %chk=phenolate_ex.chk
 ----------------------------------------------------------------------
 # CAM-B3LYP/6-31+G* Symmetry=(Loose) nosymm freq=(saveNM,HPmodes) Inte
 gral=Fine # TDA(Root=1,NStates=10)
 ----------------------------------------------------------------------
 1/10=4,30=1,38=1/1,3;
 2/12=2,15=1,17=4,18=3,40=1/2;
 3/5=1,6=6,7=11,11=9,25=1,30=1,71=2,74=-40,75=-4,140=1/1,2,3,8;
 4//1;
 5/5=2,38=5,98=1/2;
 8/6=1,10=2,107=1,108=10/1;
 9/8=1,15=3,41=10,42=1/14;
 10/5=3004,20=4,28=1,31=1/2;
 11/6=1,8=1,12=-1,16=1,31=1,42=3/1,2,10;
 10/6=3,21=1,28=1,31=1/2,14;
 6/7=2,8=2,9=2,10=2/1;
 7/8=11,10=1,12=6,13=8,14=1,25=1,30=1,44=2,92=1/1,2,3,16;
 1/10=4,30=1/3;
 99//99;
 ----------------------------
 phenoxy radical optimization
 ----------------------------
 Symbolic Z-matrix:
 Charge = -1 Multiplicity = 1
 C                     1.04386   0.        0. 
 C                     0.28748   1.24116   0. 
 C                    -1.07963   1.21849   0. 
 C                    -1.77756   0.        0. 
 C                    -1.07963  -1.21849   0. 
 C                     0.28748  -1.24116   0. 
 O                     2.29671   0.        0. 
 H                     0.85121   2.17058   0. 
 H                    -1.65067   2.148     0. 
 H                    -2.8667    0.        0. 
 H                    -1.65067  -2.148     0. 
 H                     0.85121  -2.17058   0. 
 

 GradGradGradGradGradGradGradGradGradGradGradGradGradGradGradGradGradGrad
 Berny optimization.
 Initialization pass.
 Trust Radius=3.00D-01 FncErr=1.00D-07 GrdErr=1.00D-07 EigMax=2.50D+02 EigMin=1.00D-04
 Number of steps in this run=      2 maximum allowed number of steps=      2.
 GradGradGradGradGradGradGradGradGradGradGradGradGradGradGradGradGradGrad

                          Input orientation:                          
 ---------------------------------------------------------------------
 Center     Atomic      Atomic             Coordinates (Angstroms)
 Number     Number       Type             X           Y           Z
 ---------------------------------------------------------------------
      1          6           0        1.043860    0.000000    0.000000
      2          6           0        0.287480    1.241160    0.000000
      3          6           0       -1.079630    1.218490    0.000000
      4          6           0       -1.777560    0.000000    0.000000
      5          6           0       -1.079630   -1.218490    0.000000
      6          6           0        0.287480   -1.241160    0.000000
      7          8           0        2.296710    0.000000    0.000000
      8          1           0        0.851210    2.170580    0.000000
      9          1           0       -1.650670    2.148000    0.000000
     10          1           0       -2.866700    0.000000    0.000000
     11          1           0       -1.650670   -2.148000    0.000000
     12          1           0        0.851210   -2.170580    0.000000
 ---------------------------------------------------------------------
                    Distance matrix (angstroms):
                    1          2          3          4          5
     1  C    0.000000
     2  C    1.453475   0.000000
     3  C    2.448250   1.367298   0.000000
     4  C    2.821420   2.409329   1.404217   0.000000
     5  C    2.448250   2.814048   2.436980   1.404217   0.000000
     6  C    1.453475   2.482320   2.814048   2.409329   1.367298
     7  O    1.252850   2.361670   3.589483   4.074270   3.589483
     8  H    2.179113   1.087020   2.152816   3.409083   3.900505
     9  H    3.445925   2.139809   1.090906   2.151745   3.414578
    10  H    3.910560   3.389591   2.162946   1.089140   2.162946
    11  H    3.445925   3.904207   3.414578   2.151745   1.090906
    12  H    2.179113   3.458000   3.900505   3.409083   2.152816
                    6          7          8          9         10
     6  C    0.000000
     7  O    2.361670   0.000000
     8  H    3.458000   2.607851   0.000000
     9  H    3.904207   4.493964   2.501982   0.000000
    10  H    3.389591   5.163410   4.305145   2.468326   0.000000
    11  H    2.139809   4.493964   4.990945   4.296000   2.468326
    12  H    1.087020   2.607851   4.341160   4.990945   4.305145
                   11         12
    11  H    0.000000
    12  H    2.501982   0.000000
 Symmetry turned off by external request.
 Stoichiometry    C6H5O(1-)
 Framework group  C2V[C2(HCCO),SGV(C4H4)]
 Deg. of freedom    11
 Full point group                 C2V     NOp   4
 Rotational constants (GHZ):           5.5292328           2.8022692           1.8597365
 Standard basis: 6-31+G(d) (6D, 7F)
   143 basis functions,   244 primitive gaussians,   143 cartesian basis functions
    25 alpha electrons       25 beta electrons
       nuclear repulsion energy       260.6869113339 Hartrees.
 NAtoms=   12 NActive=   12 NUniq=   12 SFac= 1.00D+00 NAtFMM=   60 NAOKFM=F Big=F
 Integral buffers will be    131072 words long.
 Raffenetti 1 integral format.
 Two-electron integral symmetry is turned off.
 One-electron integrals computed using PRISM.
 NBasis=   143 RedAO= T EigKep=  5.93D-06  NBF=   143
 NBsUse=   143 1.00D-06 EigRej= -1.00D+00 NBFU=   143
 ExpMin= 4.38D-02 ExpMax= 5.48D+03 ExpMxC= 8.25D+02 IAcc=2 IRadAn=         4 AccDes= 0.00D+00
 Harris functional with IExCor=20419 and IRadAn=       4 diagonalized for initial guess.
 HarFok:  IExCor=20419 AccDes= 0.00D+00 IRadAn=         4 IDoV= 1 UseB2=F ITyADJ=14
 ICtDFT=  3500011 ScaDFX=  1.000000  1.000000  1.000000  1.000000
 FoFCou: FMM=F IPFlag=           0 FMFlag=      100000 FMFlg1=           0
         NFxFlg=           0 DoJE=T BraDBF=F KetDBF=T FulRan=T
         wScrn=  0.000000 ICntrl=       500 IOpCl=  0 I1Cent=   200000004 NGrid=           0
         NMat0=    1 NMatS0=      1 NMatT0=    0 NMatD0=    1 NMtDS0=    0 NMtDT0=    0
 Symmetry not used in FoFCou.
 Keep R1 ints in memory in canonical form, NReq=136878625.
 Requested convergence on RMS density matrix=1.00D-08 within 128 cycles.
 Requested convergence on MAX density matrix=1.00D-06.
 Requested convergence on             energy=1.00D-06.
 No special actions if energy rises.
 SCF Done:  E(RCAM-B3LYP) =  -306.753888560     A.U. after   14 cycles
            NFock= 14  Conv=0.27D-08     -V/T= 2.0089
 DoSCS=F DFT=T ScalE2(SS,OS)=  1.000000  1.000000
 ExpMin= 4.38D-02 ExpMax= 5.48D+03 ExpMxC= 8.25D+02 IAcc=3 IRadAn=         5 AccDes= 0.00D+00
 HarFok:  IExCor=  205 AccDes= 0.00D+00 IRadAn=         5 IDoV=-2 UseB2=F ITyADJ=14
 ICtDFT= 12500011 ScaDFX=  1.000000  1.000000  1.000000  1.000000
 Range of M.O.s used for correlation:     8   143
 NBasis=   143 NAE=    25 NBE=    25 NFC=     7 NFV=     0
 NROrb=    136 NOA=    18 NOB=    18 NVA=   118 NVB=   118

 **** Warning!!: The largest alpha MO coefficient is  0.10760992D+03

 Keep R1, R2, and R3 ints in memory in canonical form, NReq=460663237.
    40 initial guesses have been made.
 Convergence on wavefunction:    0.000001000000000
 Iteration     1 Dimension    40 NMult     0 NNew     40
 CISAX will form    40 AO SS matrices at one time.
 New state      7 was old state     12
 New state      8 was old state      7
 New state      9 was old state     16
 New state     10 was old state      9
 Iteration     2 Dimension    80 NMult    40 NNew     40
 New state      4 was old state      6
 New state      6 was old state      4
 New state     10 was old state     11
 Iteration     3 Dimension    90 NMult    80 NNew     10
 Iteration     4 Dimension   100 NMult    90 NNew     10
 Iteration     5 Dimension   110 NMult   100 NNew     10
 Iteration     6 Dimension   120 NMult   110 NNew     10
 Iteration     7 Dimension   130 NMult   120 NNew     10
 Iteration     8 Dimension   137 NMult   130 NNew      7
 Iteration     9 Dimension   142 NMult   137 NNew      5
 ***********************************************************************
 Excited states from <AA,BB:AA,BB> singles matrix:
 ***********************************************************************
 
 Ground to excited state transition densities written to RWF  633
 Ground to excited state transition electric dipole moments (Au):
       state          X           Y           Z        Dip. S.      Osc.
         1         0.0000     -0.0000      0.1091      0.0119      0.0010
         2        -0.0000     -0.0000     -0.0000      0.0000      0.0000
         3         0.0000      0.0000      0.4153      0.1725      0.0169
         4         0.0000     -1.0678      0.0000      1.1403      0.1178
         5         0.0000     -0.0000      0.0724      0.0052      0.0006
         6        -0.0000     -0.0000     -0.0000      0.0000      0.0000
         7         0.2694     -0.0000      0.0000      0.0726      0.0087
         8        -0.0000     -0.5007     -0.0000      0.2507      0.0310
         9         0.0000      0.0000     -0.1086      0.0118      0.0015
        10         1.5886      0.0000     -0.0000      2.5237      0.3147
 Ground to excited state transition velocity dipole moments (Au):
       state          X           Y           Z        Dip. S.      Osc.
         1        -0.0000      0.0000     -0.0049      0.0000      0.0001
         2         0.0000      0.0000     -0.0000      0.0000      0.0000
         3        -0.0000     -0.0000     -0.0304      0.0009      0.0042
         4        -0.0000     -0.0323      0.0000      0.0010      0.0045
         5        -0.0000      0.0000     -0.0319      0.0010      0.0041
         6         0.0000      0.0000      0.0000      0.0000      0.0000
         7        -0.0291      0.0000     -0.0000      0.0008      0.0031
         8         0.0000      0.0458      0.0000      0.0021      0.0075
         9        -0.0000     -0.0000      0.0356      0.0013      0.0045
        10        -0.1029     -0.0000      0.0000      0.0106      0.0377
 Ground to excited state transition magnetic dipole moments (Au):
       state          X           Y           Z
         1        -0.0000     -0.2839     -0.0000
         2         0.1425      0.0000     -0.0000
         3        -0.0000     -0.0802      0.0000
         4         0.0000     -0.0000     -1.2081
         5         0.0000      0.3045     -0.0000
         6        -0.0374      0.0000     -0.0000
         7         0.0000      0.0000      0.0000
         8         0.0000     -0.0000      0.4042
         9        -0.0000      0.1155     -0.0000
        10        -0.0000     -0.0000     -0.0000
 Ground to excited state transition velocity quadrupole moments (Au):
       state          XX          YY          ZZ          XY          XZ          YZ
         1         0.0000     -0.0000     -0.0000     -0.0000      0.2710     -0.0000
         2        -0.0000      0.0000     -0.0000      0.0000     -0.0000      0.0711
         3        -0.0000      0.0000      0.0000     -0.0000      0.1602      0.0000
         4         0.0000      0.0000      0.0000     -0.1287      0.0000     -0.0000
         5        -0.0000     -0.0000     -0.0000     -0.0000     -0.0888     -0.0000
         6        -0.0000     -0.0000     -0.0000     -0.0000     -0.0000      0.1925
         7         0.3601     -0.1182     -0.0410      0.0000     -0.0000      0.0000
         8        -0.0000     -0.0000     -0.0000      0.4106      0.0000      0.0000
         9        -0.0000     -0.0000     -0.0000     -0.0000      0.0254      0.0000
        10        -0.1587     -0.2604      0.2575     -0.0000      0.0000     -0.0000
 <0|del|b> * <b|rxdel|0> + <0|del|b> * <b|delr+rdel|0>
 Rotatory Strengths (R) in cgs (10**-40 erg-esu-cm/Gauss)
       state          XX          YY          ZZ    R(velocity)    E-M Angle
         1        -0.0000      0.0000     -0.0000     -0.0000       90.00
         2         0.0000      0.0000      0.0000      0.0000       90.00
         3         0.0000     -0.0000     -0.0000     -0.0000       90.00
         4        -0.0000     -0.0000      0.0000     -0.0000       90.00
         5         0.0000      0.0000      0.0000      0.0000       90.00
         6         0.0000      0.0000     -0.0000     -0.0000       90.00
         7        -0.0000     -0.0000     -0.0000     -0.0000       90.00
         8         0.0000     -0.0000      0.0000      0.0000       90.00
         9        -0.0000     -0.0000     -0.0000     -0.0000       90.00
        10        -0.0000      0.0000      0.0000      0.0000       90.00
 1/2[<0|r|b>*<b|rxdel|0> + (<0|rxdel|b>*<b|r|0>)*]
 Rotatory Strengths (R) in cgs (10**-40 erg-esu-cm/Gauss)
       state          XX          YY          ZZ     R(length)
         1         0.0000     -0.0000      0.0000     -0.0000
         2         0.0000      0.0000     -0.0000      0.0000
         3         0.0000      0.0000     -0.0000     -0.0000
         4        -0.0000     -0.0000      0.0000     -0.0000
         5        -0.0000      0.0000      0.0000      0.0000
         6        -0.0000      0.0000     -0.0000     -0.0000
         7        -0.0000      0.0000     -0.0000     -0.0000
         8         0.0000     -0.0000      0.0000     -0.0000
         9         0.0000     -0.0000     -0.0000     -0.0000
        10         0.0000      0.0000     -0.0000      0.0000
  1/2[<0|del|b>*<b|r|0> + (<0|r|b>*<b|del|0>)*] (Au)
       state          X           Y           Z        Dip. S.   Osc.(frdel)
         1        -0.0000     -0.0000     -0.0005      0.0005      0.0004
         2        -0.0000     -0.0000      0.0000     -0.0000     -0.0000
         3        -0.0000     -0.0000     -0.0126      0.0126      0.0084
         4        -0.0000      0.0345      0.0000     -0.0345     -0.0230
         5        -0.0000     -0.0000     -0.0023      0.0023      0.0015
         6        -0.0000     -0.0000     -0.0000      0.0000      0.0000
         7        -0.0078     -0.0000     -0.0000      0.0078      0.0052
         8        -0.0000     -0.0229     -0.0000      0.0229      0.0153
         9        -0.0000     -0.0000     -0.0039      0.0039      0.0026
        10        -0.1634     -0.0000     -0.0000      0.1634      0.1089

 Excitation energies and oscillator strengths:
 
 Excited state symmetry could not be determined.
 Excited State   1:      Singlet-?Sym    3.4050 eV  364.13 nm  f=0.0010  <S**2>=0.000
      25 -> 26         0.69357
 This state for optimization and/or second-order correction.
 Total Energy, E(CIS/TDA) =  -306.628758721    
 Copying the excited state density for this state as the 1-particle RhoCI density.
 
 Excited state symmetry could not be determined.
 Excited State   2:      Singlet-?Sym    3.7899 eV  327.15 nm  f=0.0000  <S**2>=0.000
      25 -> 27         0.69295
      25 -> 29         0.10424
 
 Excited state symmetry could not be determined.
 Excited State   3:      Singlet-?Sym    3.9879 eV  310.90 nm  f=0.0169  <S**2>=0.000
      25 -> 28         0.66389
      25 -> 30        -0.19816
 
 Excited state symmetry could not be determined.
 Excited State   4:      Singlet-?Sym    4.2182 eV  293.93 nm  f=0.1178  <S**2>=0.000
      25 -> 31         0.67248
 
 Excited state symmetry could not be determined.
 Excited State   5:      Singlet-?Sym    4.4957 eV  275.78 nm  f=0.0006  <S**2>=0.000
      25 -> 28         0.21412
      25 -> 30         0.61472
      25 -> 32        -0.24203
 
 Excited state symmetry could not be determined.
 Excited State   6:      Singlet-?Sym    4.5015 eV  275.43 nm  f=0.0000  <S**2>=0.000
      25 -> 27        -0.10751
      25 -> 29         0.69059
 
 Excited state symmetry could not be determined.
 Excited State   7:      Singlet-?Sym    4.9137 eV  252.32 nm  f=0.0087  <S**2>=0.000
      25 -> 33        -0.33831
      25 -> 34         0.59234
      25 -> 37        -0.15382
 
 Excited state symmetry could not be determined.
 Excited State   8:      Singlet-?Sym    5.0488 eV  245.57 nm  f=0.0310  <S**2>=0.000
      24 -> 26         0.45950
      24 -> 28        -0.38068
      24 -> 30         0.33399
      24 -> 32        -0.14039
 
 Excited state symmetry could not be determined.
 Excited State   9:      Singlet-?Sym    5.0701 eV  244.54 nm  f=0.0015  <S**2>=0.000
      24 -> 31         0.68835
 
 Excited state symmetry could not be determined.
 Excited State  10:      Singlet-?Sym    5.0896 eV  243.60 nm  f=0.3147  <S**2>=0.000
      23 -> 31        -0.14904
      24 -> 27        -0.10029
      24 -> 29        -0.24251
      25 -> 33         0.50132
      25 -> 34         0.35108
      25 -> 37         0.11068
 SavETr:  write IOETrn=   770 NScale= 10 NData=  16 NLR=1 NState=   10 LETran=     190.
          IDoAtm=111111111111
          Differentiating once with respect to electric field.
                with respect to dipole field.
          Differentiating once with respect to nuclear coordinates.
 Keep R1 ints in memory in canonical form, NReq=136887169.
          There are     1 degrees of freedom in the 1st order CPHF.  IDoFFX=0 NUNeed=     1.
 LinEq1:  Iter=  0 NonCon=     1 RMS=1.54D-02 Max=2.82D-01 NDo=     1
 AX will form     1 AO Fock derivatives at one time.
 LinEq1:  Iter=  1 NonCon=     1 RMS=5.64D-03 Max=1.03D-01 NDo=     1
 LinEq1:  Iter=  2 NonCon=     1 RMS=3.83D-03 Max=4.43D-02 NDo=     1
 LinEq1:  Iter=  3 NonCon=     1 RMS=1.25D-03 Max=2.57D-02 NDo=     1
 LinEq1:  Iter=  4 NonCon=     1 RMS=7.67D-04 Max=1.77D-02 NDo=     1
 LinEq1:  Iter=  5 NonCon=     1 RMS=3.29D-04 Max=6.31D-03 NDo=     1
 LinEq1:  Iter=  6 NonCon=     1 RMS=1.59D-04 Max=2.81D-03 NDo=     1
 LinEq1:  Iter=  7 NonCon=     1 RMS=5.75D-05 Max=8.77D-04 NDo=     1
 LinEq1:  Iter=  8 NonCon=     1 RMS=1.11D-05 Max=1.05D-04 NDo=     1
 LinEq1:  Iter=  9 NonCon=     1 RMS=3.95D-06 Max=8.15D-05 NDo=     1
 LinEq1:  Iter= 10 NonCon=     1 RMS=1.63D-06 Max=2.51D-05 NDo=     1
 LinEq1:  Iter= 11 NonCon=     1 RMS=4.10D-07 Max=5.47D-06 NDo=     1
 LinEq1:  Iter= 12 NonCon=     1 RMS=7.78D-08 Max=6.42D-07 NDo=     1
 LinEq1:  Iter= 13 NonCon=     1 RMS=1.20D-08 Max=2.13D-07 NDo=     1
 LinEq1:  Iter= 14 NonCon=     1 RMS=2.20D-09 Max=3.89D-08 NDo=     1
 LinEq1:  Iter= 15 NonCon=     1 RMS=3.79D-10 Max=8.51D-09 NDo=     1
 LinEq1:  Iter= 16 NonCon=     1 RMS=5.57D-11 Max=1.17D-09 NDo=     1
 LinEq1:  Iter= 17 NonCon=     0 RMS=1.02D-11 Max=2.15D-10 NDo=     1
 Linear equations converged to 1.000D-10 1.000D-09 after    17 iterations.
          There are     1 degrees of freedom in the 1st order CPHF.  IDoFFX=0 NUNeed=     1.
 LinEq1:  Iter=  0 NonCon=     1 RMS=1.22D-01 Max=6.54D+00 NDo=     1
 LinEq1:  Iter=  1 NonCon=     1 RMS=5.83D-03 Max=1.82D-01 NDo=     1
 LinEq1:  Iter=  2 NonCon=     1 RMS=3.53D-04 Max=7.48D-03 NDo=     1
 LinEq1:  Iter=  3 NonCon=     1 RMS=9.83D-05 Max=1.78D-03 NDo=     1
 LinEq1:  Iter=  4 NonCon=     1 RMS=2.39D-05 Max=4.98D-04 NDo=     1
 LinEq1:  Iter=  5 NonCon=     1 RMS=7.77D-06 Max=1.39D-04 NDo=     1
 LinEq1:  Iter=  6 NonCon=     1 RMS=1.07D-06 Max=1.96D-05 NDo=     1
 LinEq1:  Iter=  7 NonCon=     1 RMS=2.10D-07 Max=4.25D-06 NDo=     1
 LinEq1:  Iter=  8 NonCon=     1 RMS=3.71D-08 Max=7.04D-07 NDo=     1
 LinEq1:  Iter=  9 NonCon=     1 RMS=8.50D-09 Max=1.17D-07 NDo=     1
 LinEq1:  Iter= 10 NonCon=     1 RMS=1.27D-09 Max=2.61D-08 NDo=     1
 LinEq1:  Iter= 11 NonCon=     1 RMS=1.45D-10 Max=3.44D-09 NDo=     1
 LinEq1:  Iter= 12 NonCon=     0 RMS=1.61D-11 Max=3.38D-10 NDo=     1
 Linear equations converged to 1.000D-10 1.000D-09 after    12 iterations.
 End of Minotr F.D. properties file   721 does not exist.
 End of Minotr F.D. properties file   722 does not exist.
 End of Minotr F.D. properties file   788 does not exist.
 Symmetrizing basis deriv contribution to polar:
 IMax=3 JMax=2 DiffMx= 0.00D+00
 G2DrvN: will do    13 centers at a time, making    1 passes.
 Calling FoFCou, ICntrl=  3107 FMM=F I1Cent=   0 AccDes= 0.00D+00.
 G2DrvN: will do    13 centers at a time, making    1 passes.
 Calling FoFCou, ICntrl=  3107 FMM=F I1Cent=   0 AccDes= 0.00D+00.
 G2DrvN: will do    13 centers at a time, making    1 passes.
 Calling FoFCou, ICntrl=  3107 FMM=F I1Cent=   0 AccDes= 0.00D+00.
 End of G2Drv F.D. properties file   721 does not exist.
 End of G2Drv F.D. properties file   722 does not exist.
 End of G2Drv F.D. properties file   788 does not exist.
          IDoAtm=111111111111
          Differentiating once with respect to electric field.
                with respect to dipole field.
          Differentiating once with respect to nuclear coordinates.
 Keep R1 ints in memory in canonical form, NReq=136831626.
          There are    39 degrees of freedom in the 1st order CPHF.  IDoFFX=6 NUNeed=    39.
     36 vectors produced by pass  0 Test12= 7.56D-15 2.56D-09 XBig12= 8.54D+01 5.44D+00.
 AX will form    36 AO Fock derivatives at one time.
     36 vectors produced by pass  1 Test12= 7.56D-15 2.56D-09 XBig12= 1.35D+01 8.98D-01.
     36 vectors produced by pass  2 Test12= 7.56D-15 2.56D-09 XBig12= 1.73D-01 9.88D-02.
     36 vectors produced by pass  3 Test12= 7.56D-15 2.56D-09 XBig12= 1.30D-03 7.77D-03.
     36 vectors produced by pass  4 Test12= 7.56D-15 2.56D-09 XBig12= 9.84D-06 6.90D-04.
     36 vectors produced by pass  5 Test12= 7.56D-15 2.56D-09 XBig12= 5.00D-08 5.07D-05.
     33 vectors produced by pass  6 Test12= 7.56D-15 2.56D-09 XBig12= 2.02D-10 3.70D-06.
     14 vectors produced by pass  7 Test12= 7.56D-15 2.56D-09 XBig12= 1.21D-12 3.07D-07.
     12 vectors produced by pass  8 Test12= 7.56D-15 2.56D-09 XBig12= 3.84D-14 6.75D-08.
      5 vectors produced by pass  9 Test12= 7.56D-15 2.56D-09 XBig12= 2.03D-16 3.78D-09.
      1 vectors produced by pass 10 Test12= 7.56D-15 2.56D-09 XBig12= 1.62D-16 4.54D-09.
 InvSVY:  IOpt=1 It=  1 EMax= 4.29D-15
 Solved reduced A of dimension   281 with    39 vectors.
 Isotropic polarizability for W=    0.000000       86.62 Bohr**3.
 End of Minotr F.D. properties file   721 does not exist.
 End of Minotr F.D. properties file   722 does not exist.
 End of Minotr F.D. properties file   788 does not exist.
 This link is doing    39 degrees of freedom
 Form MO integral derivatives with frozen-active canonical formalism.
 CISSec: MDV=   13421768203
 Doing CIS/TDA second derivatives, IDoFFX=6 IOneXC=4 IRadAn=         2.
 Frozen orbitals handled with amplitudes over full window.
 Keep R1, R2, and R3 ints in memory in canonical form, NReq=349101831.
 CISAX will form    39 AO SS matrices at one time.
     37 vectors produced by pass  0 Test12= 5.45D-15 2.56D-09 XBig12= 8.16D+02 2.85D+01.
 AX will form    37 AO Fock derivatives at one time.
     36 vectors produced by pass  1 Test12= 5.45D-15 2.56D-09 XBig12= 6.56D+01 7.54D+00.
     36 vectors produced by pass  2 Test12= 5.45D-15 2.56D-09 XBig12= 7.51D+00 9.30D-01.
     36 vectors produced by pass  3 Test12= 5.45D-15 2.56D-09 XBig12= 5.00D-02 8.77D-02.
     36 vectors produced by pass  4 Test12= 5.45D-15 2.56D-09 XBig12= 3.41D-04 3.96D-03.
     36 vectors produced by pass  5 Test12= 5.45D-15 2.56D-09 XBig12= 2.07D-06 3.62D-04.
     34 vectors produced by pass  6 Test12= 5.45D-15 2.56D-09 XBig12= 1.67D-08 2.49D-05.
     22 vectors produced by pass  7 Test12= 5.45D-15 2.56D-09 XBig12= 1.16D-10 2.10D-06.
      8 vectors produced by pass  8 Test12= 5.45D-15 2.56D-09 XBig12= 7.49D-13 1.61D-07.
      4 vectors produced by pass  9 Test12= 5.45D-15 2.56D-09 XBig12= 3.10D-14 5.23D-08.
      2 vectors produced by pass 10 Test12= 5.45D-15 2.56D-09 XBig12= 1.04D-16 4.11D-09.
 InvSVY:  IOpt=1 It=  1 EMax= 2.84D-14
 Solved reduced A of dimension   287 with    39 vectors.
 Tx.T = -2.64D-03 for pert.     1
 Tx.T =  6.55D-04 for pert.     2
 Tx.T = -6.41D-05 for pert.    16
 Tx.T =  4.91D-05 for pert.    13
 Tx.T =  4.85D-05 for pert.    19
 Tx.T = -4.22D-05 for pert.    10
 Tx.T = -3.36D-05 for pert.     8
 Tx.T =  3.30D-05 for pert.    20
 Tx.T =  2.71D-05 for pert.     7
 Tx.T =  2.51D-05 for pert.    11
 SavDET:  read IOETrn=   770 NScale= 10 NData=  16 NLR=1 NState=   10 NDeriv=    0 LETran=     190.
 SavDET: write IOETrn=   770 NScale= 10 NData=  16 NLR=1 NState=   10 NDeriv=   39 LETran=     814.
 TDDxLx will form    39 C1x/S1x matrices at one time.
 Interchange theorem applied.
 FoFJK:  IHMeth= 1 ICntrl=    5100 DoSepK=T KAlg= 0 I1Cent=           0 FoldK=F
 IRaf=         1 NMat=       1 IRICut=       1 DoRegI=T DoRafI=F ISym2E= 0 IDoP0=0 IntGTp=1.

 **********************************************************************

            Population analysis using the SCF Density.

 **********************************************************************

 Alpha  occ. eigenvalues --  -18.97062 -10.12967 -10.10023 -10.10022 -10.08135
 Alpha  occ. eigenvalues --  -10.07230 -10.07230  -0.87822  -0.74649  -0.65666
 Alpha  occ. eigenvalues --   -0.60894  -0.50281  -0.47888  -0.40323  -0.34822
 Alpha  occ. eigenvalues --   -0.34808  -0.32169  -0.28336  -0.27652  -0.24472
 Alpha  occ. eigenvalues --   -0.23883  -0.20274  -0.14387  -0.10088  -0.05226
 Alpha virt. eigenvalues --    0.15977   0.16890   0.17782   0.19713   0.19920
 Alpha virt. eigenvalues --    0.20051   0.22278   0.22423   0.22699   0.24583
 Alpha virt. eigenvalues --    0.25494   0.26046   0.26855   0.29099   0.29231
 Alpha virt. eigenvalues --    0.29842   0.30426   0.30973   0.32481   0.32987
 Alpha virt. eigenvalues --    0.33709   0.34113   0.36524   0.37998   0.38930
 Alpha virt. eigenvalues --    0.39105   0.39989   0.41739   0.43088   0.46495
 Alpha virt. eigenvalues --    0.48531   0.49302   0.49344   0.50326   0.52446
 Alpha virt. eigenvalues --    0.53052   0.56148   0.57553   0.60497   0.62383
 Alpha virt. eigenvalues --    0.70009   0.81369   0.83441   0.83692   0.88289
 Alpha virt. eigenvalues --    0.91855   0.93893   0.94755   0.95300   0.97766
 Alpha virt. eigenvalues --    0.97800   0.97913   1.02007   1.04404   1.07745
 Alpha virt. eigenvalues --    1.11430   1.14629   1.15850   1.16676   1.19423
 Alpha virt. eigenvalues --    1.23481   1.23505   1.30013   1.31733   1.34544
 Alpha virt. eigenvalues --    1.37724   1.39186   1.49114   1.49992   1.50512
 Alpha virt. eigenvalues --    1.52592   1.58631   1.62471   1.65174   1.65595
 Alpha virt. eigenvalues --    1.70520   1.72364   1.72526   1.74775   1.75289
 Alpha virt. eigenvalues --    1.89805   2.02841   2.08764   2.09953   2.15612
 Alpha virt. eigenvalues --    2.18179   2.21671   2.25121   2.26055   2.27529
 Alpha virt. eigenvalues --    2.33094   2.36841   2.42185   2.42239   2.42352
 Alpha virt. eigenvalues --    2.50715   2.55155   2.58932   2.59099   2.81927
 Alpha virt. eigenvalues --    2.86195   2.88823   2.89906   2.94557   3.00139
 Alpha virt. eigenvalues --    3.00558   3.10825   3.12223   3.42051   3.43522
 Alpha virt. eigenvalues --    3.65180   4.45118   4.48645   4.50025   4.59311
 Alpha virt. eigenvalues --    4.62438   4.75645   5.03995
          Condensed to atoms (all electrons):
               1          2          3          4          5          6
     1  C    5.694681  -0.219254   0.102115  -0.050077   0.102115  -0.219254
     2  C   -0.219254  10.110743  -0.559648  -0.175059   0.847471  -3.954270
     3  C    0.102115  -0.559648   5.585150   0.385275  -0.375502   0.847471
     4  C   -0.050077  -0.175059   0.385275   5.591952   0.385275  -0.175059
     5  C    0.102115   0.847471  -0.375502   0.385275   5.585150  -0.559648
     6  C   -0.219254  -3.954270   0.847471  -0.175059  -0.559648  10.110743
     7  O    0.666655  -0.324158   0.024653  -0.017824   0.024653  -0.324158
     8  H    0.059092   0.287683  -0.105122   0.011554  -0.021126   0.065804
     9  H   -0.020973   0.028873   0.270158   0.016624   0.021414  -0.033232
    10  H   -0.011242   0.002233  -0.002532   0.300551  -0.002532   0.002233
    11  H   -0.020973  -0.033232   0.021414   0.016624   0.270158   0.028873
    12  H    0.059092   0.065804  -0.021126   0.011554  -0.105122   0.287683
               7          8          9         10         11         12
     1  C    0.666655   0.059092  -0.020973  -0.011242  -0.020973   0.059092
     2  C   -0.324158   0.287683   0.028873   0.002233  -0.033232   0.065804
     3  C    0.024653  -0.105122   0.270158  -0.002532   0.021414  -0.021126
     4  C   -0.017824   0.011554   0.016624   0.300551   0.016624   0.011554
     5  C    0.024653  -0.021126   0.021414  -0.002532   0.270158  -0.105122
     6  C   -0.324158   0.065804  -0.033232   0.002233   0.028873   0.287683
     7  O    8.702409  -0.008196  -0.000873   0.000098  -0.000873  -0.008196
     8  H   -0.008196   0.570431  -0.005296  -0.000161   0.000015  -0.000128
     9  H   -0.000873  -0.005296   0.597702  -0.005756  -0.000189   0.000015
    10  H    0.000098  -0.000161  -0.005756   0.600460  -0.005756  -0.000161
    11  H   -0.000873   0.000015  -0.000189  -0.005756   0.597702  -0.005296
    12  H   -0.008196  -0.000128   0.000015  -0.000161  -0.005296   0.570431
 Mulliken charges:
               1
     1  C   -0.141976
     2  C   -0.077185
     3  C   -0.172306
     4  C   -0.301388
     5  C   -0.172306
     6  C   -0.077185
     7  O   -0.734188
     8  H    0.145450
     9  H    0.131535
    10  H    0.122566
    11  H    0.131535
    12  H    0.145450
 Sum of Mulliken charges =  -1.00000
 Mulliken charges with hydrogens summed into heavy atoms:
               1
     1  C   -0.141976
     2  C    0.068264
     3  C   -0.040771
     4  C   -0.178823
     5  C   -0.040771
     6  C    0.068264
     7  O   -0.734188
 APT charges:
               1
     1  C    0.542724
     2  C    0.160435
     3  C    0.982067
     4  C   -2.159970
     5  C    0.989977
     6  C    0.164889
     7  O   -0.294935
     8  H   -0.123235
     9  H   -0.304804
    10  H   -0.529152
    11  H   -0.305544
    12  H   -0.122451
 Sum of APT charges =  -1.00000
 APT charges with hydrogens summed into heavy atoms:
               1
     1  C    0.542724
     2  C    0.037200
     3  C    0.677263
     4  C   -2.689122
     5  C    0.684432
     6  C    0.042438
     7  O   -0.294935
 Electronic spatial extent (au):  <R**2>=            665.0388
 Charge=             -1.0000 electrons
 Dipole moment (field-independent basis, Debye):
    X=             -4.5322    Y=             -0.0000    Z=             -0.0000  Tot=              4.5322
 Quadrupole moment (field-independent basis, Debye-Ang):
   XX=            -65.6271   YY=            -46.0916   ZZ=            -49.1224
   XY=              0.0000   XZ=              0.0000   YZ=             -0.0000
 Traceless Quadrupole moment (field-independent basis, Debye-Ang):
   XX=            -12.0134   YY=              7.5221   ZZ=              4.4913
   XY=              0.0000   XZ=              0.0000   YZ=             -0.0000
 Octapole moment (field-independent basis, Debye-Ang**2):
  XXX=            -32.5955  YYY=             -0.0000  ZZZ=              0.0000  XYY=              1.7924
  XXY=             -0.0000  XXZ=             -0.0000  XZZ=              6.5790  YZZ=              0.0000
  YYZ=             -0.0000  XYZ=              0.0000
 Hexadecapole moment (field-independent basis, Debye-Ang**3):
 XXXX=           -697.1398 YYYY=           -351.2934 ZZZZ=            -71.6733 XXXY=              0.0000
 XXXZ=              0.0000 YYYX=             -0.0000 YYYZ=             -0.0000 ZZZX=              0.0000
 ZZZY=             -0.0000 XXYY=           -154.7335 XXZZ=           -117.9706 YYZZ=            -80.3407
 XXYZ=              0.0000 YYXZ=             -0.0000 ZZXY=             -0.0000
 N-N= 2.606869113339D+02 E-N=-1.244823236049D+03  KE= 3.040517100335D+02
  Exact polarizability: 694.226  -0.4002138.086  -0.204   0.199 170.096
 Approx polarizability: 134.101  -0.000 106.031  -0.000   0.000  62.475
 Calling FoFJK, ICntrl=  10105127 FMM=F ISym2X=0 I1Cent= 0 IOpClX= 0 NMat=1 NMatS=1 NMatT=0.
 Calling FoFJK, ICntrl=  10002127 FMM=F ISym2X=0 I1Cent= 0 IOpClX= 0 NMat=1 NMatS=1 NMatT=0.
 Full mass-weighted force constant matrix:
 Low frequencies ---   -0.0011    0.0006    0.0008    5.6242   10.4477   24.7062
 Low frequencies ---  192.6697  364.0400  451.9104
 Diagonal vibrational polarizability:
       27.1940896     137.9709557      15.9777411
 Harmonic frequencies (cm**-1), IR intensities (KM/Mole), Raman scattering
 activities (A**4/AMU), depolarization ratios for plane and unpolarized
 incident light, reduced masses (AMU), force constants (mDyne/A),
 and normal coordinates:
                           1         2         3         4         5
                           A         A         A         A         A
       Frequencies ---   192.6687  364.0399  451.9103  453.5409  524.3218
    Reduced masses ---     4.7239    3.0429    3.0842    5.8342    7.8759
   Force constants ---     0.1033    0.2376    0.3711    0.7071    1.2757
    IR Intensities ---     6.2485    0.0000    8.4246    0.4361   49.5074
 Coord Atom Element:
   1     1     6          0.00049   0.00000  -0.00060   0.01817   0.31453
   2     1     6         -0.00005  -0.00002  -0.00337  -0.22955   0.01237
   3     1     6         -0.09214   0.00000   0.20738  -0.00537   0.00559
   1     2     6         -0.00019   0.00000   0.00055   0.02457  -0.05613
   2     2     6         -0.00018  -0.00002  -0.00346  -0.26465  -0.17247
   3     2     6         -0.26094   0.21171   0.07925  -0.00217  -0.00078
   1     3     6          0.00010   0.00000   0.00092   0.05600  -0.11634
   2     3     6         -0.00028   0.00000   0.00122   0.04551  -0.19468
   3     3     6         -0.01547  -0.21851  -0.19301   0.00535   0.00044
   1     4     6         -0.00065  -0.00001   0.00078  -0.02397  -0.41240
   2     4     6          0.00002   0.00001   0.00172   0.11711  -0.00595
   3     4     6          0.27385  -0.00000   0.21383  -0.00599  -0.00029
   1     5     6          0.00001  -0.00000  -0.00071  -0.06233  -0.09583
   2     5     6          0.00031   0.00001   0.00048   0.06809   0.19602
   3     5     6         -0.01547   0.21851  -0.19301   0.00528   0.00051
   1     6     6         -0.00017  -0.00000  -0.00027  -0.03307  -0.04394
   2     6     6          0.00007  -0.00002  -0.00401  -0.24771   0.20591
   3     6     6         -0.26094  -0.21171   0.07925  -0.00212  -0.00016
   1     7     8          0.00038   0.00000  -0.00061   0.01836   0.36122
   2     7     8          0.00009   0.00003   0.00589   0.40564  -0.03229
   3     7     8          0.29409  -0.00000  -0.09765   0.00249  -0.00210
   1     8     1         -0.00045   0.00002   0.00441   0.24203  -0.35054
   2     8     1         -0.00003  -0.00003  -0.00584  -0.39890   0.01043
   3     8     1         -0.41653   0.45854  -0.12439   0.00321  -0.00548
   1     9     1          0.00030   0.00002   0.00291   0.22732   0.08697
   2     9     1         -0.00012   0.00001   0.00238   0.14801  -0.06798
   3     9     1         -0.00199  -0.44404  -0.51019   0.01391  -0.00570
   1    10     1         -0.00060  -0.00001   0.00076  -0.02346  -0.41475
   2    10     1          0.00006   0.00001   0.00203   0.14410  -0.01867
   3    10     1          0.58851  -0.00001   0.51274  -0.01419  -0.00303
   1    11     1          0.00024  -0.00001  -0.00341  -0.21173   0.13309
   2    11     1          0.00013   0.00001   0.00211   0.15609   0.05387
   3    11     1         -0.00198   0.44404  -0.51019   0.01380  -0.00663
   1    12     1         -0.00054  -0.00002  -0.00315  -0.27995  -0.30441
   2    12     1         -0.00015  -0.00003  -0.00579  -0.40011   0.04423
   3    12     1         -0.41656  -0.45854  -0.12441   0.00343  -0.00926
                           6         7         8         9        10
                           A         A         A         A         A
       Frequencies ---   597.4090  640.3847  797.9161  811.8277  850.6076
    Reduced masses ---     6.9181    1.5755    5.6690    1.2508    2.1523
   Force constants ---     1.4547    0.3807    2.1265    0.4857    0.9175
    IR Intensities ---   126.7390   91.8562    0.1365    0.0006   49.8705
 Coord Atom Element:
   1     1     6         -0.00469  -0.00094   0.19154  -0.00025   0.00031
   2     1     6         -0.13462  -0.00006  -0.00018  -0.00000   0.00003
   3     1     6         -0.00062   0.16660  -0.00093  -0.00001   0.25306
   1     2     6         -0.25555  -0.00019  -0.12399   0.00026  -0.00034
   2     2     6         -0.12330   0.00082   0.15778  -0.00055   0.00196
   3     2     6          0.00017  -0.04955   0.00105   0.09341  -0.10736
   1     3     6         -0.30156   0.00063  -0.18297   0.00007   0.00046
   2     3     6          0.24272   0.00063   0.24644  -0.00039   0.00033
   3     3     6         -0.00019   0.09057   0.00044   0.04824  -0.00622
   1     4     6          0.00610   0.00107   0.17436  -0.00026  -0.00010
   2     4     6          0.13715   0.00007   0.00036  -0.00001  -0.00002
   3     4     6          0.00006  -0.02997   0.00049   0.00000  -0.11506
   1     5     6          0.30708   0.00088  -0.18264   0.00009   0.00037
   2     5     6          0.23700  -0.00033  -0.24612   0.00036  -0.00028
   3     5     6         -0.00021   0.09057  -0.00015  -0.04825  -0.00623
   1     6     6          0.25601   0.00020  -0.12371   0.00019  -0.00018
   2     6     6         -0.13108  -0.00102  -0.15905   0.00060  -0.00194
   3     6     6          0.00011  -0.04956  -0.00022  -0.09340  -0.10737
   1     7     8         -0.00641  -0.00143   0.25398  -0.00018  -0.00019
   2     7     8         -0.16490  -0.00008   0.00060  -0.00000  -0.00005
   3     7     8          0.00017  -0.03492   0.00025   0.00000  -0.05212
   1     8     1         -0.14422   0.00081  -0.18534   0.00035  -0.00096
   2     8     1         -0.18630   0.00019   0.20943  -0.00062   0.00237
   3     8     1          0.00122  -0.54834  -0.00609  -0.59516   0.14765
   1     9     1         -0.23680  -0.00012  -0.44192   0.00062  -0.00076
   2     9     1          0.28523   0.00022   0.09948  -0.00010  -0.00031
   3     9     1          0.00074  -0.23102  -0.00448  -0.36705   0.49809
   1    10     1          0.00634   0.00116   0.17275  -0.00029  -0.00001
   2    10     1         -0.29050  -0.00007   0.00046  -0.00005   0.00009
   3    10     1          0.00106  -0.49067  -0.00357   0.00000   0.59749
   1    11     1          0.23470   0.00012  -0.44368   0.00064  -0.00062
   2    11     1          0.28395   0.00010  -0.09786   0.00006   0.00022
   3    11     1          0.00084  -0.23101   0.00011   0.36702   0.49814
   1    12     1          0.15369   0.00099  -0.18667   0.00033  -0.00075
   2    12     1         -0.18845  -0.00052  -0.21167   0.00071  -0.00234
   3    12     1          0.00168  -0.54830   0.00195   0.59518   0.14772
                          11        12        13        14        15
                           A         A         A         A         A
       Frequencies ---   924.5088  957.7603 1030.6505 1037.1026 1062.2392
    Reduced masses ---     4.8870    1.4206    2.3510    1.3285    1.3310
   Force constants ---     2.4610    0.7678    1.4714    0.8419    0.8849
    IR Intensities ---     0.0984   79.6341    0.3302    0.0003    4.7046
 Coord Atom Element:
   1     1     6          0.02428   0.00001   0.00367   0.00002  -0.00010
   2     1     6         -0.00053  -0.00001  -0.00034   0.00003  -0.00008
   3     1     6         -0.00212  -0.07354  -0.00018  -0.00000   0.01421
   1     2     6          0.09237   0.00037  -0.07027  -0.00004   0.00046
   2     2     6          0.35764   0.00067  -0.00644  -0.00012   0.00028
   3     2     6          0.00056   0.09597  -0.00020  -0.06425   0.03157
   1     3     6          0.04919  -0.00004   0.00805   0.00010  -0.00032
   2     3     6         -0.10287  -0.00028  -0.17879   0.00053  -0.00044
   3     3     6          0.00041  -0.00590   0.00057   0.10225  -0.09294
   1     4     6         -0.23712  -0.00063   0.21903  -0.00035  -0.00013
   2     4     6         -0.00098  -0.00000  -0.00029   0.00002  -0.00009
   3     4     6          0.00155  -0.11451  -0.00017   0.00000   0.09963
   1     5     6          0.04896  -0.00000   0.00827   0.00006  -0.00020
   2     5     6          0.10247   0.00027   0.17897  -0.00054   0.00051
   3     5     6         -0.00020  -0.00590  -0.00029  -0.10225  -0.09294
   1     6     6          0.09045   0.00031  -0.07100   0.00004   0.00024
   2     6     6         -0.35402  -0.00065   0.00717   0.00007  -0.00015
   3     6     6          0.00026   0.09597   0.00029   0.06425   0.03157
   1     7     8         -0.01283   0.00006  -0.00178  -0.00007   0.00018
   2     7     8         -0.00116   0.00001  -0.00006  -0.00000   0.00002
   3     7     8          0.00029   0.01996   0.00003   0.00000  -0.00141
   1     8     1         -0.12757  -0.00004  -0.40461   0.00072   0.00051
   2     8     1          0.50208   0.00095   0.18998  -0.00059   0.00028
   3     8     1          0.00382  -0.53991   0.00157   0.35009  -0.21234
   1     9     1         -0.05804  -0.00018  -0.28008   0.00096  -0.00122
   2     9     1         -0.16176  -0.00037  -0.36581   0.00109  -0.00102
   3     9     1         -0.00881   0.13590  -0.00363  -0.60235   0.54454
   1    10     1         -0.24552  -0.00068   0.23322  -0.00035  -0.00019
   2    10     1         -0.00326  -0.00007  -0.00167   0.00017  -0.00060
   3    10     1         -0.00622   0.58537   0.00108  -0.00002  -0.53609
   1    11     1         -0.05109  -0.00016  -0.27819   0.00084  -0.00091
   2    11     1          0.15684   0.00037   0.36496  -0.00106   0.00099
   3    11     1         -0.00480   0.13591   0.00146   0.60238   0.54453
   1    12     1         -0.12534  -0.00011  -0.40597   0.00092  -0.00035
   2    12     1         -0.49585  -0.00093  -0.18957   0.00060  -0.00051
   3    12     1          0.00593  -0.53990  -0.00106  -0.35010  -0.21233
                          16        17        18        19        20
                           A         A         A         A         A
       Frequencies ---  1085.4078 1160.3611 1172.7224 1298.0088 1387.3782
    Reduced masses ---     1.5170    1.0953    1.1115    2.1670    2.2009
   Force constants ---     1.0530    0.8689    0.9006    2.1512    2.4959
    IR Intensities ---  3812.3117 1448.8050  464.2867   68.3320  356.9038
 Coord Atom Element:
   1     1     6         -0.00025   0.00024  -0.01501  -0.00142  -0.00118
   2     1     6          0.06814  -0.02418   0.00090   0.28824  -0.09617
   3     1     6         -0.00003  -0.00000   0.00028   0.00002  -0.00005
   1     2     6         -0.06377   0.00808   0.03688  -0.00567  -0.14535
   2     2     6         -0.06433   0.01338   0.00759  -0.06917   0.08596
   3     2     6          0.00009   0.00000  -0.00032  -0.00000   0.00006
   1     3     6          0.02127  -0.03524  -0.04056  -0.05689   0.05241
   2     3     6         -0.06718  -0.02450  -0.03186  -0.04753   0.02550
   3     3     6         -0.00014  -0.00000   0.00028  -0.00001  -0.00004
   1     4     6         -0.00020   0.00024  -0.01532  -0.00018  -0.00003
   2     4     6          0.12271   0.05516   0.00012   0.02440  -0.18371
   3     4     6          0.00011   0.00000  -0.00023   0.00000   0.00003
   1     5     6         -0.02248   0.03640  -0.03932   0.05330  -0.05509
   2     5     6         -0.06553  -0.02544   0.03176  -0.04644   0.02569
   3     5     6         -0.00009  -0.00000   0.00019  -0.00000  -0.00003
   1     6     6          0.06518  -0.00927   0.03715   0.01077   0.14945
   2     6     6         -0.06492   0.01363  -0.00811  -0.06860   0.08692
   3     6     6          0.00004   0.00000  -0.00018  -0.00002   0.00003
   1     7     8          0.00043  -0.00036   0.02558   0.00065   0.00044
   2     7     8         -0.01165   0.00148   0.00019  -0.03474  -0.00486
   3     7     8          0.00000   0.00000  -0.00003  -0.00000   0.00000
   1     8     1         -0.47119   0.19991   0.44841   0.46803   0.23834
   2     8     1          0.17578  -0.10057  -0.23940  -0.36254  -0.14428
   3     8     1         -0.00039   0.00000   0.00081  -0.00003  -0.00011
   1     9     1          0.19493  -0.42570  -0.42415   0.25435   0.32983
   2     9     1          0.03579  -0.26111  -0.26483   0.14122   0.18747
   3     9     1          0.00068   0.00000  -0.00095   0.00002   0.00009
   1    10     1         -0.00029   0.00028  -0.01573  -0.00065  -0.00025
   2    10     1          0.60488   0.61435   0.00587   0.05248   0.66518
   3    10     1         -0.00052  -0.00001   0.00090   0.00006  -0.00007
   1    11     1         -0.19997   0.43493  -0.41690  -0.24374  -0.32880
   2    11     1          0.03990  -0.26699   0.26118   0.13396   0.18542
   3    11     1          0.00040   0.00000  -0.00050   0.00000   0.00005
   1    12     1          0.47266  -0.20895   0.43297  -0.48741  -0.24862
   2    12     1          0.17514  -0.10500   0.22937  -0.37707  -0.15218
   3    12     1         -0.00009  -0.00001  -0.00003   0.00005   0.00007
                          21        22        23        24        25
                           A         A         A         A         A
       Frequencies ---  1446.2985 1486.7864 1581.7712 1593.9358 1645.5983
    Reduced masses ---     1.9596    3.7178    3.3845    7.1696    6.1278
   Force constants ---     2.4151    4.8421    4.9892   10.7322    9.7769
    IR Intensities ---   198.2323  128.5988   62.9504  461.1282  526.0309
 Coord Atom Element:
   1     1     6         -0.08109   0.00353  -0.01159   0.59716   0.00983
   2     1     6          0.00007  -0.19037  -0.06765   0.00293   0.00794
   3     1     6         -0.00008   0.00012  -0.00003  -0.00058  -0.00110
   1     2     6         -0.10507   0.09812  -0.18008  -0.11003  -0.30707
   2     2     6          0.08668   0.12264   0.08173   0.05038   0.02417
   3     2     6          0.00008  -0.00012   0.00003   0.00056   0.00105
   1     3     6         -0.03772  -0.21568   0.11737  -0.03105   0.35152
   2     3     6         -0.10081  -0.15056  -0.11562  -0.05763   0.09045
   3     3     6         -0.00005   0.00008  -0.00002  -0.00036  -0.00067
   1     4     6          0.07775  -0.00100   0.00006   0.04700  -0.13917
   2     4     6         -0.00031   0.13436   0.27330   0.00819  -0.00048
   3     4     6          0.00004  -0.00007   0.00001   0.00030   0.00055
   1     5     6         -0.03655   0.22044  -0.12075  -0.04551   0.34353
   2     5     6          0.09982  -0.15259  -0.11619   0.04953  -0.09314
   3     5     6         -0.00004   0.00006  -0.00001  -0.00030  -0.00056
   1     6     6         -0.10469  -0.10205   0.18792  -0.08981  -0.29564
   2     6     6         -0.08567   0.12281   0.08376  -0.04494  -0.02285
   3     6     6          0.00005  -0.00007   0.00002   0.00034   0.00064
   1     7     8          0.10215  -0.00219   0.00649  -0.35116   0.06053
   2     7     8         -0.00017   0.02700  -0.00823  -0.00216  -0.00322
   3     7     8          0.00001  -0.00001   0.00000   0.00004   0.00007
   1     8     1          0.38165   0.15479   0.24087   0.40272   0.10627
   2     8     1         -0.20766   0.11293  -0.18492  -0.24027  -0.26333
   3     8     1         -0.00012   0.00018  -0.00004  -0.00076  -0.00136
   1     9     1          0.48035   0.49381  -0.01600   0.17803  -0.27758
   2     9     1          0.20284   0.29088  -0.22396   0.06552  -0.32307
   3     9     1          0.00009  -0.00014   0.00003   0.00056   0.00098
   1    10     1          0.08749  -0.00096  -0.00023   0.06388  -0.14600
   2    10     1          0.00311   0.10634  -0.69615  -0.02189   0.00166
   3    10     1         -0.00012   0.00016  -0.00003  -0.00074  -0.00137
   1    11     1          0.47363  -0.50244   0.01418   0.17544  -0.28856
   2    11     1         -0.19908   0.29697  -0.22583  -0.08422   0.31951
   3    11     1          0.00005  -0.00008   0.00002   0.00032   0.00056
   1    12     1          0.37747  -0.15042  -0.25765   0.37412   0.08574
   2    12     1          0.20601   0.11827  -0.19745   0.21438   0.24384
   3    12     1          0.00007  -0.00012   0.00003   0.00060   0.00113
                          26        27        28        29        30
                           A         A         A         A         A
       Frequencies ---  3106.1656 3141.8187 3156.9368 3205.2623 3208.7475
    Reduced masses ---     1.0948    1.0910    1.0874    1.0916    1.0905
   Force constants ---     6.2233    6.3448    6.3853    6.6078    6.6153
    IR Intensities ---    92.2665 1185.7271   34.6909   84.5384  297.4093
 Coord Atom Element:
   1     1     6          0.00046   0.00006  -0.00072   0.00297   0.00000
   2     1     6         -0.00004  -0.00000   0.00012  -0.00003   0.00285
   3     1     6          0.00001  -0.00000  -0.00003   0.00001   0.00000
   1     2     6          0.00480  -0.00491   0.00430   0.03220  -0.03210
   2     2     6          0.00313  -0.00292   0.00811   0.05144  -0.05214
   3     2     6         -0.00001   0.00000   0.00003  -0.00001  -0.00000
   1     3     6         -0.02792   0.03321   0.01768  -0.00449   0.00032
   2     3     6          0.04523  -0.05129  -0.02662   0.00151   0.00345
   3     3     6          0.00000  -0.00000  -0.00002   0.00000   0.00000
   1     4     6         -0.04672   0.00048  -0.07129   0.01393  -0.00004
   2     4     6          0.00001   0.00177  -0.00002   0.00001   0.00072
   3     4     6         -0.00000   0.00000   0.00001  -0.00000  -0.00000
   1     5     6         -0.02796  -0.03328   0.01724  -0.00445  -0.00029
   2     5     6         -0.04532  -0.05153   0.02590  -0.00145   0.00348
   3     5     6          0.00000  -0.00000  -0.00001   0.00000   0.00000
   1     6     6          0.00478   0.00476   0.00439   0.03222   0.03205
   2     6     6         -0.00315  -0.00288  -0.00805  -0.05153  -0.05208
   3     6     6         -0.00000   0.00000   0.00002  -0.00000  -0.00000
   1     7     8          0.00010  -0.00001   0.00049  -0.00068   0.00000
   2     7     8          0.00002   0.00011  -0.00007   0.00002  -0.00010
   3     7     8         -0.00000   0.00000   0.00000  -0.00000  -0.00000
   1     8     1         -0.02233   0.02614  -0.05548  -0.35908   0.36389
   2     8     1         -0.03115   0.03744  -0.09360  -0.59435   0.60181
   3     8     1          0.00001  -0.00000  -0.00002   0.00001   0.00000
   1     9     1          0.30958  -0.36507  -0.19691   0.01409   0.02284
   2     9     1         -0.50976   0.59858   0.32228  -0.01793  -0.04150
   3     9     1         -0.00000   0.00000   0.00001  -0.00000  -0.00000
   1    10     1          0.52534  -0.00598   0.83096  -0.16025   0.00044
   2    10     1         -0.00004  -0.00404   0.00007  -0.00003  -0.00203
   3    10     1          0.00001  -0.00000  -0.00003   0.00000   0.00000
   1    11     1          0.31039   0.36696  -0.19241   0.01377  -0.02303
   2    11     1          0.51100   0.60170  -0.31452   0.01733  -0.04181
   3    11     1         -0.00000   0.00000   0.00001  -0.00000  -0.00000
   1    12     1         -0.02235  -0.02569  -0.05566  -0.35953  -0.36343
   2    12     1          0.03130   0.03676   0.09350   0.59517   0.60107
   3    12     1         -0.00001   0.00000   0.00003  -0.00001  -0.00000
 Harmonic frequencies (cm**-1), IR intensities (KM/Mole), Raman scattering
 activities (A**4/AMU), depolarization ratios for plane and unpolarized
 incident light, reduced masses (AMU), force constants (mDyne/A),
 and normal coordinates:
                      1                      2                      3
                      A                      A                      A
 Frequencies --    192.6687               364.0399               451.9103
 Red. masses --      4.7239                 3.0429                 3.0842
 Frc consts  --      0.1033                 0.2376                 0.3711
 IR Inten    --      6.2485                 0.0000                 8.4246
  Atom  AN      X      Y      Z        X      Y      Z        X      Y      Z
     1   6     0.00  -0.00  -0.09     0.00  -0.00   0.00    -0.00  -0.00   0.21
     2   6    -0.00  -0.00  -0.26     0.00  -0.00   0.21     0.00  -0.00   0.08
     3   6     0.00  -0.00  -0.02     0.00   0.00  -0.22     0.00   0.00  -0.19
     4   6    -0.00   0.00   0.27    -0.00   0.00  -0.00     0.00   0.00   0.21
     5   6     0.00   0.00  -0.02    -0.00   0.00   0.22    -0.00   0.00  -0.19
     6   6    -0.00   0.00  -0.26    -0.00  -0.00  -0.21    -0.00  -0.00   0.08
     7   8     0.00   0.00   0.29     0.00   0.00  -0.00    -0.00   0.01  -0.10
     8   1    -0.00  -0.00  -0.42     0.00  -0.00   0.46     0.00  -0.01  -0.12
     9   1     0.00  -0.00  -0.00     0.00   0.00  -0.44     0.00   0.00  -0.51
    10   1    -0.00   0.00   0.59    -0.00   0.00  -0.00     0.00   0.00   0.51
    11   1     0.00   0.00  -0.00    -0.00   0.00   0.44    -0.00   0.00  -0.51
    12   1    -0.00  -0.00  -0.42    -0.00  -0.00  -0.46    -0.00  -0.01  -0.12
                      4                      5                      6
                      A                      A                      A
 Frequencies --    453.5409               524.3218               597.4090
 Red. masses --      5.8342                 7.8759                 6.9181
 Frc consts  --      0.7071                 1.2757                 1.4547
 IR Inten    --      0.4361                49.5074               126.7390
  Atom  AN      X      Y      Z        X      Y      Z        X      Y      Z
     1   6     0.02  -0.23  -0.01     0.31   0.01   0.01    -0.00  -0.13  -0.00
     2   6     0.02  -0.26  -0.00    -0.06  -0.17  -0.00    -0.26  -0.12   0.00
     3   6     0.06   0.05   0.01    -0.12  -0.19   0.00    -0.30   0.24  -0.00
     4   6    -0.02   0.12  -0.01    -0.41  -0.01  -0.00     0.01   0.14   0.00
     5   6    -0.06   0.07   0.01    -0.10   0.20   0.00     0.31   0.24  -0.00
     6   6    -0.03  -0.25  -0.00    -0.04   0.21  -0.00     0.26  -0.13   0.00
     7   8     0.02   0.41   0.00     0.36  -0.03  -0.00    -0.01  -0.16   0.00
     8   1     0.24  -0.40   0.00    -0.35   0.01  -0.01    -0.14  -0.19   0.00
     9   1     0.23   0.15   0.01     0.09  -0.07  -0.01    -0.24   0.29   0.00
    10   1    -0.02   0.14  -0.01    -0.41  -0.02  -0.00     0.01  -0.29   0.00
    11   1    -0.21   0.16   0.01     0.13   0.05  -0.01     0.23   0.28   0.00
    12   1    -0.28  -0.40   0.00    -0.30   0.04  -0.01     0.15  -0.19   0.00
                      7                      8                      9
                      A                      A                      A
 Frequencies --    640.3847               797.9161               811.8277
 Red. masses --      1.5755                 5.6690                 1.2508
 Frc consts  --      0.3807                 2.1265                 0.4857
 IR Inten    --     91.8562                 0.1365                 0.0006
  Atom  AN      X      Y      Z        X      Y      Z        X      Y      Z
     1   6    -0.00  -0.00   0.17     0.19  -0.00  -0.00    -0.00  -0.00  -0.00
     2   6    -0.00   0.00  -0.05    -0.12   0.16   0.00     0.00  -0.00   0.09
     3   6     0.00   0.00   0.09    -0.18   0.25   0.00     0.00  -0.00   0.05
     4   6     0.00   0.00  -0.03     0.17   0.00   0.00    -0.00  -0.00   0.00
     5   6     0.00  -0.00   0.09    -0.18  -0.25  -0.00     0.00   0.00  -0.05
     6   6     0.00  -0.00  -0.05    -0.12  -0.16  -0.00     0.00   0.00  -0.09
     7   8    -0.00  -0.00  -0.03     0.25   0.00   0.00    -0.00  -0.00   0.00
     8   1     0.00   0.00  -0.55    -0.19   0.21  -0.01     0.00  -0.00  -0.60
     9   1    -0.00   0.00  -0.23    -0.44   0.10  -0.00     0.00  -0.00  -0.37
    10   1     0.00  -0.00  -0.49     0.17   0.00  -0.00    -0.00  -0.00   0.00
    11   1     0.00   0.00  -0.23    -0.44  -0.10   0.00     0.00   0.00   0.37
    12   1     0.00  -0.00  -0.55    -0.19  -0.21   0.00     0.00   0.00   0.60
                     10                     11                     12
                      A                      A                      A
 Frequencies --    850.6076               924.5088               957.7603
 Red. masses --      2.1523                 4.8870                 1.4206
 Frc consts  --      0.9175                 2.4610                 0.7678
 IR Inten    --     49.8705                 0.0984                79.6341
  Atom  AN      X      Y      Z        X      Y      Z        X      Y      Z
     1   6     0.00   0.00   0.25     0.02  -0.00  -0.00     0.00  -0.00  -0.07
     2   6    -0.00   0.00  -0.11     0.09   0.36   0.00     0.00   0.00   0.10
     3   6     0.00   0.00  -0.01     0.05  -0.10   0.00    -0.00  -0.00  -0.01
     4   6    -0.00  -0.00  -0.12    -0.24  -0.00   0.00    -0.00  -0.00  -0.11
     5   6     0.00  -0.00  -0.01     0.05   0.10  -0.00    -0.00   0.00  -0.01
     6   6    -0.00  -0.00  -0.11     0.09  -0.35   0.00     0.00  -0.00   0.10
     7   8    -0.00  -0.00  -0.05    -0.01  -0.00   0.00     0.00   0.00   0.02
     8   1    -0.00   0.00   0.15    -0.13   0.50   0.00    -0.00   0.00  -0.54
     9   1    -0.00  -0.00   0.50    -0.06  -0.16  -0.01    -0.00  -0.00   0.14
    10   1    -0.00   0.00   0.60    -0.25  -0.00  -0.01    -0.00  -0.00   0.59
    11   1    -0.00   0.00   0.50    -0.05   0.16  -0.00    -0.00   0.00   0.14
    12   1    -0.00  -0.00   0.15    -0.13  -0.50   0.01    -0.00  -0.00  -0.54
                     13                     14                     15
                      A                      A                      A
 Frequencies --   1030.6505              1037.1026              1062.2392
 Red. masses --      2.3510                 1.3285                 1.3310
 Frc consts  --      1.4714                 0.8419                 0.8849
 IR Inten    --      0.3302                 0.0003                 4.7046
  Atom  AN      X      Y      Z        X      Y      Z        X      Y      Z
     1   6     0.00  -0.00  -0.00     0.00   0.00  -0.00    -0.00  -0.00   0.01
     2   6    -0.07  -0.01  -0.00    -0.00  -0.00  -0.06     0.00   0.00   0.03
     3   6     0.01  -0.18   0.00     0.00   0.00   0.10    -0.00  -0.00  -0.09
     4   6     0.22  -0.00  -0.00    -0.00   0.00   0.00    -0.00  -0.00   0.10
     5   6     0.01   0.18  -0.00     0.00  -0.00  -0.10    -0.00   0.00  -0.09
     6   6    -0.07   0.01   0.00     0.00   0.00   0.06     0.00  -0.00   0.03
     7   8    -0.00  -0.00   0.00    -0.00  -0.00   0.00     0.00   0.00  -0.00
     8   1    -0.40   0.19   0.00     0.00  -0.00   0.35     0.00   0.00  -0.21
     9   1    -0.28  -0.37  -0.00     0.00   0.00  -0.60    -0.00  -0.00   0.54
    10   1     0.23  -0.00   0.00    -0.00   0.00  -0.00    -0.00  -0.00  -0.54
    11   1    -0.28   0.36   0.00     0.00  -0.00   0.60    -0.00   0.00   0.54
    12   1    -0.41  -0.19  -0.00     0.00   0.00  -0.35    -0.00  -0.00  -0.21
                     16                     17                     18
                      A                      A                      A
 Frequencies --   1085.4078              1160.3611              1172.7224
 Red. masses --      1.5170                 1.0953                 1.1115
 Frc consts  --      1.0530                 0.8689                 0.9006
 IR Inten    --   3812.3117              1448.8050               464.2867
  Atom  AN      X      Y      Z        X      Y      Z        X      Y      Z
     1   6    -0.00   0.07  -0.00     0.00  -0.02  -0.00    -0.02   0.00   0.00
     2   6    -0.06  -0.06   0.00     0.01   0.01   0.00     0.04   0.01  -0.00
     3   6     0.02  -0.07  -0.00    -0.04  -0.02  -0.00    -0.04  -0.03   0.00
     4   6    -0.00   0.12   0.00     0.00   0.06   0.00    -0.02   0.00  -0.00
     5   6    -0.02  -0.07  -0.00     0.04  -0.03  -0.00    -0.04   0.03   0.00
     6   6     0.07  -0.06   0.00    -0.01   0.01   0.00     0.04  -0.01  -0.00
     7   8     0.00  -0.01   0.00    -0.00   0.00   0.00     0.03   0.00  -0.00
     8   1    -0.47   0.18  -0.00     0.20  -0.10   0.00     0.45  -0.24   0.00
     9   1     0.19   0.04   0.00    -0.43  -0.26   0.00    -0.42  -0.26  -0.00
    10   1    -0.00   0.60  -0.00     0.00   0.61  -0.00    -0.02   0.01   0.00
    11   1    -0.20   0.04   0.00     0.43  -0.27   0.00    -0.42   0.26  -0.00
    12   1     0.47   0.18  -0.00    -0.21  -0.11  -0.00     0.43   0.23  -0.00
                     19                     20                     21
                      A                      A                      A
 Frequencies --   1298.0088              1387.3782              1446.2985
 Red. masses --      2.1670                 2.2009                 1.9596
 Frc consts  --      2.1512                 2.4959                 2.4151
 IR Inten    --     68.3320               356.9038               198.2323
  Atom  AN      X      Y      Z        X      Y      Z        X      Y      Z
     1   6    -0.00   0.29   0.00    -0.00  -0.10  -0.00    -0.08   0.00  -0.00
     2   6    -0.01  -0.07  -0.00    -0.15   0.09   0.00    -0.11   0.09   0.00
     3   6    -0.06  -0.05  -0.00     0.05   0.03  -0.00    -0.04  -0.10  -0.00
     4   6    -0.00   0.02   0.00    -0.00  -0.18   0.00     0.08  -0.00   0.00
     5   6     0.05  -0.05  -0.00    -0.06   0.03  -0.00    -0.04   0.10  -0.00
     6   6     0.01  -0.07  -0.00     0.15   0.09   0.00    -0.10  -0.09   0.00
     7   8     0.00  -0.03  -0.00     0.00  -0.00   0.00     0.10  -0.00   0.00
     8   1     0.47  -0.36  -0.00     0.24  -0.14  -0.00     0.38  -0.21  -0.00
     9   1     0.25   0.14   0.00     0.33   0.19   0.00     0.48   0.20   0.00
    10   1    -0.00   0.05   0.00    -0.00   0.67  -0.00     0.09   0.00  -0.00
    11   1    -0.24   0.13   0.00    -0.33   0.19   0.00     0.47  -0.20   0.00
    12   1    -0.49  -0.38   0.00    -0.25  -0.15   0.00     0.38   0.21   0.00
                     22                     23                     24
                      A                      A                      A
 Frequencies --   1486.7864              1581.7712              1593.9358
 Red. masses --      3.7178                 3.3845                 7.1696
 Frc consts  --      4.8421                 4.9892                10.7322
 IR Inten    --    128.5988                62.9504               461.1282
  Atom  AN      X      Y      Z        X      Y      Z        X      Y      Z
     1   6     0.00  -0.19   0.00    -0.01  -0.07  -0.00     0.60   0.00  -0.00
     2   6     0.10   0.12  -0.00    -0.18   0.08   0.00    -0.11   0.05   0.00
     3   6    -0.22  -0.15   0.00     0.12  -0.12  -0.00    -0.03  -0.06  -0.00
     4   6    -0.00   0.13  -0.00     0.00   0.27   0.00     0.05   0.01   0.00
     5   6     0.22  -0.15   0.00    -0.12  -0.12  -0.00    -0.05   0.05  -0.00
     6   6    -0.10   0.12  -0.00     0.19   0.08   0.00    -0.09  -0.04   0.00
     7   8    -0.00   0.03  -0.00     0.01  -0.01   0.00    -0.35  -0.00   0.00
     8   1     0.15   0.11   0.00     0.24  -0.18  -0.00     0.40  -0.24  -0.00
     9   1     0.49   0.29  -0.00    -0.02  -0.22   0.00     0.18   0.07   0.00
    10   1    -0.00   0.11   0.00    -0.00  -0.70  -0.00     0.06  -0.02  -0.00
    11   1    -0.50   0.30  -0.00     0.01  -0.23   0.00     0.18  -0.08   0.00
    12   1    -0.15   0.12  -0.00    -0.26  -0.20   0.00     0.37   0.21   0.00
                     25                     26                     27
                      A                      A                      A
 Frequencies --   1645.5983              3106.1656              3141.8187
 Red. masses --      6.1278                 1.0948                 1.0910
 Frc consts  --      9.7769                 6.2233                 6.3448
 IR Inten    --    526.0309                92.2665              1185.7271
  Atom  AN      X      Y      Z        X      Y      Z        X      Y      Z
     1   6     0.01   0.01  -0.00     0.00  -0.00   0.00     0.00  -0.00  -0.00
     2   6    -0.31   0.02   0.00     0.00   0.00  -0.00    -0.00  -0.00   0.00
     3   6     0.35   0.09  -0.00    -0.03   0.05   0.00     0.03  -0.05  -0.00
     4   6    -0.14  -0.00   0.00    -0.05   0.00  -0.00     0.00   0.00   0.00
     5   6     0.34  -0.09  -0.00    -0.03  -0.05   0.00    -0.03  -0.05  -0.00
     6   6    -0.30  -0.02   0.00     0.00  -0.00  -0.00     0.00  -0.00   0.00
     7   8     0.06  -0.00   0.00     0.00   0.00  -0.00    -0.00   0.00   0.00
     8   1     0.11  -0.26  -0.00    -0.02  -0.03   0.00     0.03   0.04  -0.00
     9   1    -0.28  -0.32   0.00     0.31  -0.51  -0.00    -0.37   0.60   0.00
    10   1    -0.15   0.00  -0.00     0.53  -0.00   0.00    -0.01  -0.00  -0.00
    11   1    -0.29   0.32   0.00     0.31   0.51  -0.00     0.37   0.60   0.00
    12   1     0.09   0.24   0.00    -0.02   0.03  -0.00    -0.03   0.04   0.00
                     28                     29                     30
                      A                      A                      A
 Frequencies --   3156.9368              3205.2623              3208.7475
 Red. masses --      1.0874                 1.0916                 1.0905
 Frc consts  --      6.3853                 6.6078                 6.6153
 IR Inten    --     34.6909                84.5384               297.4093
  Atom  AN      X      Y      Z        X      Y      Z        X      Y      Z
     1   6    -0.00   0.00  -0.00     0.00  -0.00   0.00     0.00   0.00   0.00
     2   6     0.00   0.01   0.00     0.03   0.05  -0.00    -0.03  -0.05  -0.00
     3   6     0.02  -0.03  -0.00    -0.00   0.00   0.00     0.00   0.00   0.00
     4   6    -0.07  -0.00   0.00     0.01   0.00  -0.00    -0.00   0.00  -0.00
     5   6     0.02   0.03  -0.00    -0.00  -0.00   0.00    -0.00   0.00   0.00
     6   6     0.00  -0.01   0.00     0.03  -0.05  -0.00     0.03  -0.05  -0.00
     7   8     0.00  -0.00   0.00    -0.00   0.00  -0.00     0.00  -0.00  -0.00
     8   1    -0.06  -0.09  -0.00    -0.36  -0.59   0.00     0.36   0.60   0.00
     9   1    -0.20   0.32   0.00     0.01  -0.02  -0.00     0.02  -0.04  -0.00
    10   1     0.83   0.00  -0.00    -0.16  -0.00   0.00     0.00  -0.00   0.00
    11   1    -0.19  -0.31   0.00     0.01   0.02  -0.00    -0.02  -0.04  -0.00
    12   1    -0.06   0.09   0.00    -0.36   0.60  -0.00    -0.36   0.60  -0.00

 -------------------
 - Thermochemistry -
 -------------------
 Temperature   298.150 Kelvin.  Pressure   1.00000 Atm.
 Atom     1 has atomic number  6 and mass  12.00000
 Atom     2 has atomic number  6 and mass  12.00000
 Atom     3 has atomic number  6 and mass  12.00000
 Atom     4 has atomic number  6 and mass  12.00000
 Atom     5 has atomic number  6 and mass  12.00000
 Atom     6 has atomic number  6 and mass  12.00000
 Atom     7 has atomic number  8 and mass  15.99491
 Atom     8 has atomic number  1 and mass   1.00783
 Atom     9 has atomic number  1 and mass   1.00783
 Atom    10 has atomic number  1 and mass   1.00783
 Atom    11 has atomic number  1 and mass   1.00783
 Atom    12 has atomic number  1 and mass   1.00783
 Molecular mass:    93.03404 amu.
 Principal axes and moments of inertia in atomic units:
                           1         2         3
     Eigenvalues --   326.39993 644.02850 970.42843
           X            1.00000  -0.00000   0.00000
           Y            0.00000   1.00000   0.00000
           Z            0.00000   0.00000   1.00000
 This molecule is an asymmetric top.
 Rotational symmetry number  2.
 Rotational temperatures (Kelvin)      0.26536     0.13449     0.08925
 Rotational constants (GHZ):           5.52923     2.80227     1.85974
 Zero-point vibrational energy     241490.7 (Joules/Mol)
                                   57.71766 (Kcal/Mol)
 Warning -- explicit consideration of   6 degrees of freedom as
           vibrations may cause significant error
 Vibrational temperatures:    277.21   523.77   650.20   652.54   754.38
          (Kelvin)            859.54   921.37  1148.02  1168.04  1223.83
                             1330.16  1378.00  1482.88  1492.16  1528.33
                             1561.66  1669.50  1687.29  1867.55  1996.13
                             2080.90  2139.15  2275.82  2293.32  2367.65
                             4469.08  4520.38  4542.13  4611.66  4616.67
 
 Zero-point correction=                           0.091979 (Hartree/Particle)
 Thermal correction to Energy=                    0.097270
 Thermal correction to Enthalpy=                  0.098214
 Thermal correction to Gibbs Free Energy=         0.063735
 Sum of electronic and zero-point Energies=           -306.536780
 Sum of electronic and thermal Energies=              -306.531489
 Sum of electronic and thermal Enthalpies=            -306.530545
 Sum of electronic and thermal Free Energies=         -306.565024
 
                     E (Thermal)             CV                S
                      KCal/Mol        Cal/Mol-Kelvin    Cal/Mol-Kelvin
 Total                   61.038             20.327             72.568
 Electronic               0.000              0.000              0.000
 Translational            0.889              2.981             39.503
 Rotational               0.889              2.981             25.437
 Vibrational             59.260             14.365              7.629
 Vibration     1          0.635              1.850              2.202
 Vibration     2          0.738              1.546              1.105
 Vibration     3          0.811              1.357              0.790
 Vibration     4          0.812              1.353              0.785
 Vibration     5          0.879              1.196              0.600
 Vibration     6          0.955              1.037              0.454
                       Q            Log10(Q)             Ln(Q)
 Total Bot       0.483266D-29        -29.315814        -67.502156
 Total V=0       0.980673D+13         12.991524         29.914090
 Vib (Bot)       0.169490D-41        -41.770855        -96.180949
 Vib (Bot)    1  0.103776D+01          0.016099          0.037069
 Vib (Bot)    2  0.502130D+00         -0.299184         -0.688896
 Vib (Bot)    3  0.378882D+00         -0.421496         -0.970529
 Vib (Bot)    4  0.377018D+00         -0.423637         -0.975461
 Vib (Bot)    5  0.306630D+00         -0.513385         -1.182112
 Vib (Bot)    6  0.250611D+00         -0.601000         -1.383853
 Vib (V=0)       0.343940D+01          0.536483          1.235297
 Vib (V=0)    1  0.165194D+01          0.217993          0.501947
 Vib (V=0)    2  0.120861D+01          0.082288          0.189475
 Vib (V=0)    3  0.112734D+01          0.052054          0.119858
 Vib (V=0)    4  0.112621D+01          0.051621          0.118861
 Vib (V=0)    5  0.108653D+01          0.036043          0.082993
 Vib (V=0)    6  0.105929D+01          0.025015          0.057599
 Electronic      0.100000D+01          0.000000          0.000000
 Translational   0.352709D+08          7.547417         17.378569
 Rotational      0.808397D+05          4.907625         11.300224
 -------------------------------------------------------------------
 Center     Atomic                   Forces (Hartrees/Bohr)
 Number     Number              X              Y              Z
 -------------------------------------------------------------------
      1        6           0.000008505    0.000000014   -0.000000000
      2        6          -0.000005563   -0.000003782    0.000000000
      3        6           0.000002646    0.000002906   -0.000000000
      4        6           0.000000584   -0.000000011   -0.000000000
      5        6           0.000002663   -0.000002919    0.000000000
      6        6          -0.000005544    0.000003792   -0.000000000
      7        8          -0.000006909   -0.000000000   -0.000000000
      8        1           0.000001807    0.000003214    0.000000000
      9        1           0.000000652   -0.000001895   -0.000000000
     10        1          -0.000001300    0.000000000    0.000000000
     11        1           0.000000653    0.000001895   -0.000000000
     12        1           0.000001807   -0.000003214    0.000000000
 -------------------------------------------------------------------
 Cartesian Forces:  Max     0.000008505 RMS     0.000002783
 -------------------------------------------------------------------
 Center     Atomic                Nonadiabatic Coup. (Bohr^-1)
 Number     Number              X              Y              Z
 -------------------------------------------------------------------
      1        6           0.000000000    0.000000000    0.004180320
      2        6          -0.000000000   -0.000000000   -0.049824514
      3        6           0.000000000   -0.000000000    0.002717993
      4        6          -0.000000000   -0.000000000    0.093361878
      5        6           0.000000000   -0.000000000    0.002717993
      6        6          -0.000000000   -0.000000000   -0.049824515
      7        8           0.000000000    0.000000000    0.020015211
      8        1          -0.000000000   -0.000000000   -0.007530272
      9        1          -0.000000000    0.000000000    0.001157898
     10        1           0.000000000    0.000000000   -0.005708555
     11        1           0.000000000   -0.000000000    0.001157898
     12        1           0.000000000   -0.000000000   -0.007530271
 -------------------------------------------------------------------
 Cartesian Nonad. Coup.:  Max     0.093361878 RMS     0.019904594

 GradGradGradGradGradGradGradGradGradGradGradGradGradGradGradGradGradGrad
 Berny optimization.
 Search for a local minimum.
 Step number   1 out of a maximum of    2
 All quantities printed in internal units (Hartrees-Bohrs-Radians)
 Second derivative matrix not updated -- analytic derivatives used.
 ITU=  0
     Eigenvalues ---    0.00704   0.01261   0.02214   0.02929   0.04452
     Eigenvalues ---    0.04789   0.05227   0.05876   0.06854   0.06890
     Eigenvalues ---    0.09342   0.09608   0.09836   0.16659   0.17959
     Eigenvalues ---    0.19125   0.22680   0.24756   0.30347   0.42151
     Eigenvalues ---    0.44768   0.62136   0.71172   0.82180   0.91236
     Eigenvalues ---    1.00062   1.12879   1.19856   1.24911   1.33281
 Angle between quadratic step and forces=  39.22 degrees.
 Linear search not attempted -- first point.
 B after Tr=     0.000000    0.000000    0.000000
         Rot=    1.000000    0.000000    0.000000    0.000000 Ang=   0.00 deg.
 Variable       Old X    -DE/DX   Delta X   Delta X   Delta X     New X
                                 (Linear)    (Quad)   (Total)
    X1        1.97261   0.00001   0.00000   0.00001   0.00001   1.97262
    Y1        0.00000   0.00000   0.00000  -0.00000  -0.00000  -0.00000
    Z1        0.00000  -0.00000   0.00000   0.00000   0.00000   0.00000
    X2        0.54326  -0.00001   0.00000  -0.00000  -0.00000   0.54326
    Y2        2.34545  -0.00000   0.00000  -0.00000  -0.00000   2.34545
    Z2        0.00000   0.00000   0.00000  -0.00000  -0.00000  -0.00000
    X3       -2.04021   0.00000   0.00000   0.00000   0.00000  -2.04020
    Y3        2.30261   0.00000   0.00000   0.00000   0.00000   2.30261
    Z3        0.00000  -0.00000   0.00000   0.00000   0.00000   0.00000
    X4       -3.35910   0.00000   0.00000   0.00000   0.00000  -3.35910
    Y4        0.00000  -0.00000   0.00000   0.00000   0.00000   0.00000
    Z4        0.00000  -0.00000   0.00000   0.00000   0.00000   0.00000
    X5       -2.04021   0.00000   0.00000   0.00000   0.00000  -2.04020
    Y5       -2.30261  -0.00000   0.00000  -0.00000  -0.00000  -2.30261
    Z5        0.00000   0.00000   0.00000   0.00000   0.00000   0.00000
    X6        0.54326  -0.00001   0.00000  -0.00000  -0.00000   0.54326
    Y6       -2.34545   0.00000   0.00000   0.00000   0.00000  -2.34545
    Z6        0.00000  -0.00000   0.00000  -0.00000  -0.00000  -0.00000
    X7        4.34015  -0.00001   0.00000  -0.00001  -0.00001   4.34015
    Y7        0.00000  -0.00000   0.00000   0.00000   0.00000   0.00000
    Z7        0.00000  -0.00000   0.00000   0.00000   0.00000   0.00000
    X8        1.60855   0.00000   0.00000  -0.00000  -0.00000   1.60855
    Y8        4.10180   0.00000   0.00000   0.00001   0.00001   4.10181
    Z8        0.00000   0.00000   0.00000  -0.00000  -0.00000  -0.00000
    X9       -3.11931   0.00000   0.00000  -0.00000  -0.00000  -3.11931
    Y9        4.05913  -0.00000   0.00000  -0.00001  -0.00001   4.05912
    Z9        0.00000  -0.00000   0.00000  -0.00000  -0.00000  -0.00000
   X10       -5.41728  -0.00000   0.00000  -0.00000  -0.00000  -5.41728
   Y10        0.00000   0.00000   0.00000  -0.00000  -0.00000  -0.00000
   Z10        0.00000   0.00000   0.00000   0.00000   0.00000   0.00000
   X11       -3.11931   0.00000   0.00000  -0.00000  -0.00000  -3.11931
   Y11       -4.05913   0.00000   0.00000   0.00001   0.00001  -4.05912
   Z11        0.00000  -0.00000   0.00000  -0.00000  -0.00000  -0.00000
   X12        1.60855   0.00000   0.00000  -0.00000  -0.00000   1.60855
   Y12       -4.10180  -0.00000   0.00000  -0.00001  -0.00001  -4.10181
   Z12        0.00000   0.00000   0.00000  -0.00000  -0.00000  -0.00000
         Item               Value     Threshold  Converged?
 Maximum Force            0.000009     0.000450     YES
 RMS     Force            0.000003     0.000300     YES
 Maximum Displacement     0.000009     0.001800     YES
 RMS     Displacement     0.000003     0.001200     YES
 Predicted change in Energy=-1.308079D-10
 Optimization completed.
    -- Stationary point found.
 GradGradGradGradGradGradGradGradGradGradGradGradGradGradGradGradGradGrad

 -------------------------------------------------------------------
 Center     Atomic                Nonadiabatic Coup. (Bohr^-1)
 Number     Number              X              Y              Z
 -------------------------------------------------------------------
      1        6           0.000000000    0.000000000    0.004180320
      2        6          -0.000000000   -0.000000000   -0.049824514
      3        6           0.000000000   -0.000000000    0.002717993
      4        6          -0.000000000   -0.000000000    0.093361878
      5        6           0.000000000   -0.000000000    0.002717993
      6        6          -0.000000000   -0.000000000   -0.049824515
      7        8           0.000000000    0.000000000    0.020015211
      8        1          -0.000000000   -0.000000000   -0.007530272
      9        1          -0.000000000    0.000000000    0.001157898
     10        1           0.000000000    0.000000000   -0.005708555
     11        1           0.000000000   -0.000000000    0.001157898
     12        1           0.000000000   -0.000000000   -0.007530271
 -------------------------------------------------------------------
 Cartesian Nonad. Coup.:  Max     0.093361878 RMS     0.019904594

 ----------------------------------------------------------------------

 Electric dipole moment (input orientation):
 (Debye = 10**-18 statcoulomb cm , SI units = C m)
                  (au)            (Debye)         (10**-30 SI)
   Tot        0.197679D+01      0.502450D+01      0.167599D+02
   x          0.197679D+01      0.502450D+01      0.167599D+02
   y          0.000000D+00      0.000000D+00      0.000000D+00
   z          0.000000D+00      0.000000D+00      0.000000D+00

 Dipole polarizability, Alpha (input orientation).
 (esu units = cm**3 , SI units = C**2 m**2 J**-1)
 Alpha(0;0):
               (au)            (10**-24 esu)      (10**-40 SI)
   iso        0.100080D+04      0.148304D+03      0.165010D+03
   aniso      0.176528D+04      0.261588D+03      0.291055D+03
   xx         0.694226D+03      0.102874D+03      0.114462D+03
   yx        -0.399673D+00     -0.592254D-01     -0.658971D-01
   yy         0.213809D+04      0.316832D+03      0.352523D+03
   zx        -0.203623D+00     -0.301738D-01     -0.335728D-01
   zy         0.198936D+00      0.294793D-01      0.328001D-01
   zz         0.170096D+03      0.252056D+02      0.280451D+02

 ----------------------------------------------------------------------

 Dipole orientation:
     6         -0.00000000         -0.00000001          1.97260951
     6         -0.00000001          2.34545247          0.54325848
     6         -0.00000001          2.30261240         -2.04020500
     6          0.00000000          0.00000002         -3.35910157
     6          0.00000001         -2.30261237         -2.04020503
     6          0.00000001         -2.34545248          0.54325845
     8         -0.00000000         -0.00000003          4.34015289
     1         -0.00000002          4.10180172          1.60855380
     1         -0.00000002          4.05913173         -3.11931420
     1          0.00000000          0.00000003         -5.41727788
     1          0.00000002         -4.05913170         -3.11931425
     1          0.00000002         -4.10180174          1.60855375

 Electric dipole moment (dipole orientation):
 (Debye = 10**-18 statcoulomb cm , SI units = C m)
                  (au)            (Debye)         (10**-30 SI)
   Tot        0.197679D+01      0.502450D+01      0.167599D+02
   x          0.000000D+00      0.000000D+00      0.000000D+00
   y          0.000000D+00      0.000000D+00      0.000000D+00
   z          0.197679D+01      0.502450D+01      0.167599D+02

 Dipole polarizability, Alpha (dipole orientation).
 (esu units = cm**3 , SI units = C**2 m**2 J**-1)
 Alpha(0;0):
               (au)            (10**-24 esu)      (10**-40 SI)
   iso        0.100080D+04      0.148304D+03      0.165010D+03
   aniso      0.176528D+04      0.261588D+03      0.291055D+03
   xx         0.170096D+03      0.252056D+02      0.280451D+02
   yx        -0.198947D+00     -0.294810D-01     -0.328020D-01
   yy         0.213809D+04      0.316832D+03      0.352523D+03
   zx         0.203623D+00      0.301738D-01      0.335728D-01
   zy        -0.399664D+00     -0.592241D-01     -0.658957D-01
   zz         0.694226D+03      0.102874D+03      0.114462D+03

 ----------------------------------------------------------------------
 Unable to Open any file for archive entry.
 1\1\GINC-NODE067\Freq\RCAM-B3LYP TDA-FC\6-31+G(d)\C6H5O1(1-)\CMYERS7\2
 6-Jul-2023\0\\# CAM-B3LYP/6-31+G* Symmetry=(Loose) nosymm freq=(saveNM
 ,HPmodes) Integral=Fine # TDA(Root=1,NStates=10)\\phenoxy radical opti
 mization\\-1,1\C,1.04386,0.,0.\C,0.28748,1.24116,0.\C,-1.07963,1.21849
 ,0.\C,-1.77756,0.,0.\C,-1.07963,-1.21849,0.\C,0.28748,-1.24116,0.\O,2.
 29671,0.,0.\H,0.85121,2.17058,0.\H,-1.65067,2.148,0.\H,-2.8667,0.,0.\H
 ,-1.65067,-2.148,0.\H,0.85121,-2.17058,0.\\Version=ES64L-GDVRevI.10+\H
 F=-306.7538886\RMSD=2.712e-09\RMSF=2.783e-06\ZeroPoint=0.0919789\Therm
 al=0.0972698\Dipole=1.9767915,0.,0.\DipoleDeriv=2.2693243,0.0167771,0.
 0221686,0.0336085,-1.6521962,0.0023204,-0.0063131,0.0063074,1.0110443,
 -0.7579744,0.5000188,-0.0276642,-0.0053413,1.9286598,0.0047118,0.00600
 98,-0.0059091,-0.6893811,0.6271556,1.2116815,0.0268443,0.1915021,2.062
 4149,-0.0041119,-0.0035755,0.0034726,0.2566311,-1.530105,-0.0329208,-0
 .0203328,-0.0190572,-4.3875485,-0.0017938,0.0025367,-0.0024556,-0.5622
 565,0.6390947,-1.1526725,0.0201937,-0.2224496,2.0741767,0.0042475,-0.0
 032592,0.003178,0.2566581,-0.731268,-0.5448471,-0.0210943,0.0221539,1.
 9154614,-0.0048633,0.0040059,-0.0040285,-0.6895259,-1.1048315,0.00008,
 -0.0000715,-0.0012257,0.6041852,0.000059,0.0003423,-0.0003538,-0.38415
 82,0.1350472,0.3359407,-0.000139,-0.4154535,-0.5520782,-0.0008897,-0.0
 003477,0.000328,0.0473259,-0.4181335,0.5829351,-0.0006407,-0.4224038,-
 0.4569035,0.0003359,0.0002209,-0.0002144,-0.0393765,0.1548688,0.003288
 4,0.0009987,-0.0000236,-1.5273657,0.0001824,-0.0004917,0.0005129,-0.21
 49584,-0.4182326,-0.583603,-0.000187,0.4226332,-0.4590277,-0.0005829,0
 .0001588,-0.0001515,-0.0393729,0.1350544,-0.3366781,-0.0000759,0.41605
 72,-0.549778,0.0003847,0.0007127,-0.000686,0.0473701\Polar=694.2256196
 ,-0.3996726,2138.0863085,-0.2036226,0.1989359,170.0961572\PG=C02V [C2(
 H1C1C1O1),SGV(C4H4)]\NImag=0\\0.77165160,0.00394988,0.57158637,-0.0006
 5378,-0.00002651,0.19252696,-0.08993845,0.02491403,0.00080355,0.764705
 62,0.03802961,-0.23341642,-0.00013239,0.06413119,0.64077725,0.00064515
 ,0.00005597,-0.07727069,-0.00080170,0.00013524,0.12078015,-0.04294438,
 0.03533854,-0.00081290,-0.41531247,-0.02566206,0.00078717,0.72000027,0
 .00458920,0.02890373,0.00010566,0.03855406,-0.12510413,-0.00011526,-0.
 04205149,0.66972308,-0.00039378,-0.00004703,-0.00044324,0.00049274,-0.
 00008419,-0.05307252,-0.00047396,0.00007497,0.12935774,0.01158990,-0.0
 0343225,0.00062172,-0.02911894,-0.01756656,-0.00059768,-0.15266166,-0.
 11479782,0.00035797,0.67911272,-0.00230362,-0.02739897,0.00002901,-0.0
 6925547,0.01980410,-0.00004561,-0.02833085,-0.25792800,0.00003497,0.00
 196311,0.61540138,0.00028167,0.00003640,-0.00930932,-0.00035352,0.0000
 6095,0.00362759,0.00033757,-0.00005480,-0.05800140,-0.00025466,-0.0000
 2674,0.13721205,-0.04253780,-0.02721213,-0.00060376,-0.03733409,0.0057
 3333,0.00058983,0.06181117,0.02859246,-0.00035716,-0.15362012,0.023642
 92,0.00025519,0.72164528,-0.00792394,0.03033413,-0.00014771,0.01894894
 ,-0.01984574,0.00012987,-0.03231304,-0.04582534,-0.00007238,0.11787955
 ,-0.25875029,0.00005025,0.03866535,0.66845870,-0.00035673,-0.00003960,
 -0.00044359,0.00044620,-0.00007658,0.00093687,-0.00043075,0.00006723,0
 .00108931,0.00032607,0.00003037,-0.05800106,-0.00032486,-0.00006710,0.
 12935692,-0.08616996,-0.03351522,0.00064433,0.03273851,-0.00086948,-0.
 00062009,-0.03313337,-0.01589952,0.00037178,-0.03201086,0.07425441,-0.
 00026433,-0.41227116,-0.03425849,0.00033804,0.75667269,-0.03622795,-0.
 23505767,0.00015752,-0.00039839,-0.02361558,-0.00014554,-0.00362148,-0
 .01946420,0.00008450,0.01589466,0.02074824,-0.00005946,0.02739916,-0.1
 2403742,0.00007743,-0.06683485,0.63999234,0.00040866,0.00000853,-0.077
 26902,-0.00049989,0.00008155,0.01284328,0.00051204,-0.00006316,0.00093
 911,-0.00039294,-0.00001356,0.00362552,0.00037906,0.00009656,-0.053069
 60,-0.00040690,-0.00010103,0.12077610,-0.53795954,-0.00001421,0.000001
 95,-0.07528006,0.03906808,-0.00000205,0.01557045,0.01464203,0.00000130
 ,-0.01389925,0.00000858,-0.00000094,0.01557363,-0.01463146,0.00000117,
 -0.07529657,-0.03907372,-0.00000119,0.66948851,-0.00012490,-0.09302865
 ,-0.00000323,0.04929153,0.00732060,0.00000213,0.00200533,-0.00936943,-
 0.00000083,0.00012015,0.00067727,0.00000050,-0.00227782,-0.00941826,-0
 .00000088,-0.04901429,0.00737644,0.00000230,0.00000036,0.08506125,0.00
 003260,-0.00000239,-0.06153123,-0.00003899,0.00000603,0.01759810,0.000
 04244,-0.00000390,0.00383481,-0.00003297,0.00000067,-0.00038518,0.0000
 3085,0.00000937,0.00383478,-0.00003411,-0.00000911,0.01759824,-0.00000
 008,0.00000029,0.02711230,0.01055943,0.01576887,0.00000445,-0.13245452
 ,-0.12565681,-0.00000414,-0.01156839,-0.02765740,0.00000242,-0.0053289
 7,0.00200775,-0.00000172,-0.00046394,-0.00030212,0.00000223,-0.0020086
 4,0.00234052,-0.00000285,0.00165924,-0.00223436,-0.00000025,0.13668636
 ,-0.01664474,-0.01883828,0.00002739,-0.12316845,-0.26852325,-0.0000262
 1,0.00090511,0.00848091,0.00001563,-0.00113255,-0.00047059,-0.00001113
 ,0.00128161,0.00041899,0.00001428,0.00228770,-0.00359849,-0.00001734,-
 0.00032938,0.00438261,-0.00000147,0.13640849,0.27967107,-0.00004074,-0
 .00000782,0.00478068,0.00005201,-0.00000933,-0.03683615,-0.00004752,0.
 00000894,0.00762757,0.00003549,0.00000539,0.00819432,-0.00003651,-0.00
 000590,-0.00103796,0.00003684,0.00000774,0.00278895,0.00000015,0.00000
 002,-0.00273171,0.00000023,0.00000154,0.02342361,-0.00157560,-0.001834
 71,0.00001893,-0.01460324,0.02625395,-0.00001865,-0.13253819,0.1181860
 1,0.00001137,0.01541495,-0.01286415,-0.00000814,-0.00010966,-0.0025636
 5,0.00001032,-0.00151800,-0.00084098,-0.00001184,-0.00149648,0.0013080
 9,-0.00000095,0.00187873,0.00032571,0.00000118,0.13579964,-0.00118668,
 -0.00057261,-0.00001069,0.00022293,0.00814687,0.00000999,0.11942047,-0
 .25139347,-0.00000585,0.00719003,-0.02367235,0.00000414,-0.00269718,-0
 .00367888,-0.00000537,-0.00090146,0.00069665,0.00000684,-0.00031639,0.
 00070474,0.00000060,-0.00021893,-0.00107333,-0.00000055,-0.12767603,0.
 26796159,0.00002438,0.00000297,0.01165278,-0.00003054,0.00000525,0.006
 63771,0.00002931,-0.00000468,-0.04502022,-0.00002216,-0.00000221,0.005
 14275,0.00002213,0.00000444,0.00530614,-0.00002296,-0.00000520,-0.0017
 6922,-0.00000008,0.00000005,-0.00135575,-0.00000015,-0.00000097,-0.005
 69018,-0.00000070,0.00000036,0.02887391,-0.00171790,0.00015042,-0.0000
 3263,0.00010007,-0.00192398,0.00002993,-0.00870200,-0.00709808,-0.0000
 1728,-0.32955493,-0.00008215,0.00001216,-0.00859909,0.00694450,-0.0000
 1592,0.00018833,0.00200796,0.00002102,0.00147784,-0.00000644,0.0000019
 1,0.00033103,0.00151498,-0.00000157,-0.00117456,0.00407677,0.00000107,
 0.34849861,0.00002177,-0.00316513,-0.00000536,-0.00181850,-0.00266536,
 0.00000531,-0.02713784,0.00527180,-0.00000325,-0.00000401,-0.06423006,
 0.00000232,0.02716270,0.00527508,-0.00000294,0.00177787,-0.00266932,0.
 00000335,-0.00000019,0.00120806,0.00000027,-0.00112344,-0.00010777,-0.
 00000034,0.00101270,0.00162134,0.00000020,-0.00000132,0.05794735,-0.00
 004571,0.00000498,0.00087330,0.00005417,-0.00000819,0.00373518,-0.0000
 6028,0.00000485,0.00942168,0.00004706,-0.00000187,-0.04544315,-0.00004
 355,-0.00001398,0.00942173,0.00004867,0.00001330,0.00373491,0.00000011
 ,-0.00000047,0.00011319,0.00000037,0.00000210,-0.00053915,0.00000133,-
 0.00000088,-0.00322369,-0.00000280,-0.00000037,0.02566862,-0.00152589,
 0.00168768,0.00000554,-0.00149399,0.00081128,-0.00000545,-0.00007514,0
 .00262274,0.00000331,0.01540903,0.01294981,-0.00000237,-0.13252026,-0.
 11812047,0.00000302,-0.01471861,-0.02629162,-0.00000347,-0.00149694,-0
 .00130342,-0.00000028,0.00023703,-0.00043627,0.00000034,-0.00031403,0.
 00174281,-0.00000021,-0.00117805,-0.00101347,0.00000039,0.13579787,0.0
 0117854,-0.00072076,0.00001820,0.00096058,0.00066046,-0.00001724,0.002
 73534,-0.00361066,0.00001021,-0.00720426,-0.02358910,-0.00000724,-0.11
 944690,-0.25132161,0.00000933,-0.00027399,0.00810683,-0.00001157,0.000
 31658,0.00071037,-0.00000100,-0.00034400,0.00006397,0.00000099,-0.0017
 4327,0.00119311,-0.00000063,-0.00407401,0.00162174,0.00000144,0.127676
 75,0.26796015,0.00001814,0.00000294,0.01165263,-0.00002294,0.00000400,
 -0.00176891,0.00002145,-0.00000373,0.00530602,-0.00001605,-0.00000206,
 0.00514279,0.00001630,0.00000293,-0.04502025,-0.00001673,-0.00000366,0
 .00663766,-0.00000006,0.00000001,-0.00135573,-0.00000010,-0.00000070,-
 0.00072746,-0.00000052,0.00000025,0.00017317,0.00000074,0.00000015,-0.
 00322371,-0.00000015,-0.00000045,0.02887392,0.01056862,-0.01580090,0.0
 0000261,-0.00200848,-0.00234856,-0.00000231,-0.00044627,0.00031781,0.0
 0000129,-0.00533189,-0.00199034,-0.00000091,-0.01157394,0.02767484,0.0
 0000121,-0.13247238,0.12564670,-0.00000171,0.00165917,0.00223575,-0.00
 000016,0.00047264,-0.00101221,0.00000011,0.00023645,0.00034365,-0.0000
 0008,0.00033065,0.00112375,0.00000024,0.00187897,0.00021865,-0.0000000
 5,0.13668645,0.01664282,-0.01862572,-0.00001188,-0.00238246,-0.0035388
 0,0.00001134,-0.00128804,0.00031571,-0.00000675,0.00108995,-0.00059162
 ,0.00000481,-0.00084350,0.00839064,-0.00000618,0.12324735,-0.26847781,
 0.00000752,0.00032973,0.00437500,0.00000064,0.00101144,-0.00040583,-0.
 00000066,0.00043634,0.00006633,0.00000042,-0.00150866,-0.00010773,-0.0
 0000092,-0.00032581,-0.00107450,0.00000030,-0.13640916,0.27967433,0.00
 008016,0.00001157,0.00478071,-0.00010107,0.00001766,0.00278940,0.00009
 543,-0.00001612,-0.00103886,-0.00007187,-0.00000836,0.00819510,0.00007
 250,0.00001364,0.00762670,-0.00007453,-0.00001649,-0.03683594,-0.00000
 027,0.00000010,-0.00273183,-0.00000048,-0.00000313,0.00074749,-0.00000
 232,0.00000116,-0.00072740,0.00000337,0.00000066,-0.00053893,-0.000000
 68,-0.00000203,-0.00569012,-0.00000025,0.00000135,0.02342368\\-0.00000
 851,-0.00000001,0.,0.00000556,0.00000378,0.,-0.00000265,-0.00000291,0.
 ,-0.00000058,0.00000001,0.,-0.00000266,0.00000292,0.,0.00000554,-0.000
 00379,0.,0.00000691,0.,0.,-0.00000181,-0.00000321,0.,-0.00000065,0.000
 00189,0.,0.00000130,0.,0.,-0.00000065,-0.00000189,0.,-0.00000181,0.000
 00321,0.\\\@
 The archive entry for this job was punched.


 IT IS BETTER TO THINK YOU ARE HALF DRY THAN TO KNOW YOU
 ARE ALL WET.  -- SNOOPY
 Job cpu time:       0 days  0 hours 25 minutes 13.8 seconds.
 Elapsed time:       0 days  0 hours  0 minutes 51.7 seconds.
 File lengths (MBytes):  RWF=    182 Int=      0 D2E=      0 Chk=     10 Scr=      2
 Normal termination of Gaussian DV at Wed Jul 26 21:06:31 2023.
